MODEL 1
REMARK VINA RESULT:      -4.5      0.000      0.000
REMARK  Name = 2244
REMARK  5 active torsions:
REMARK  status: ('A' for Active; 'I' for Inactive)
REMARK    1  A    between atoms: O_1  and  C_5
REMARK    2  A    between atoms: O_1  and  C_12
REMARK    3  A    between atoms: O_2  and  C_11
REMARK    4  A    between atoms: C_6  and  C_11
REMARK    5  A    between atoms: C_12  and  C_13
REMARK                            x       y       z     vdW  Elec       q    Type
REMARK                         _______ _______ _______ _____ _____    ______ ____
ROOT
ATOM      1  C   UNL     1       9.325   5.389  -9.936  0.00  0.00    +0.146 A 
ATOM      2  C   UNL     1       8.582   6.044 -10.075  0.00  0.00    +0.101 A 
ATOM      3  C   UNL     1       9.271   4.723  -9.192  0.00  0.00    +0.047 A 
ATOM      4  C   UNL     1       7.786   6.032  -9.470  0.00  0.00    +0.018 A 
ATOM      5  C   UNL     1       8.475   4.711  -8.587  0.00  0.00    +0.004 A 
ATOM      6  C   UNL     1       7.732   5.366  -8.727  0.00  0.00    +0.001 A 
ENDROOT
BRANCH   2   8
ATOM      7  O   UNL     1       8.282   6.477 -11.725  0.00  0.00    -0.245 OA
ATOM      8  C   UNL     1       8.636   6.710 -10.819  0.00  0.00    +0.340 C 
BRANCH   8   9
ATOM      9  O   UNL     1       9.043   7.609 -10.657  0.00  0.00    -0.477 OA
ATOM     10  H   UNL     1       8.861   8.097 -10.993  0.00  0.00    +0.295 HD
ENDBRANCH   8   9
ENDBRANCH   2   8
BRANCH   1  11
ATOM     11  O   UNL     1      10.121   5.400 -10.541  0.00  0.00    -0.425 OA
BRANCH  11  13
ATOM     12  O   UNL     1      11.623   5.045  -9.753  0.00  0.00    -0.251 OA
ATOM     13  C   UNL     1      10.885   4.777 -10.373  0.00  0.00    +0.309 C 
ATOM     14  C   UNL     1      10.912   3.886 -10.826  0.00  0.00    +0.136 C 
ENDBRANCH  11  13
ENDBRANCH   1  11
TORSDOF 4
ENDMDL
MODEL 2
REMARK VINA RESULT:      -4.2      0.912      2.746
REMARK  Name = 2244
REMARK  5 active torsions:
REMARK  status: ('A' for Active; 'I' for Inactive)
REMARK    1  A    between atoms: O_1  and  C_5
REMARK    2  A    between atoms: O_1  and  C_12
REMARK    3  A    between atoms: O_2  and  C_11
REMARK    4  A    between atoms: C_6  and  C_11
REMARK    5  A    between atoms: C_12  and  C_13
REMARK                            x       y       z     vdW  Elec       q    Type
REMARK                         _______ _______ _______ _____ _____    ______ ____
ROOT
ATOM      1  C   UNL     1       9.551   4.969  -9.801  0.00  0.00    +0.146 A 
ATOM      2  C   UNL     1      10.344   4.480  -9.437  0.00  0.00    +0.101 A 
ATOM      3  C   UNL     1       8.696   4.989  -9.283  0.00  0.00    +0.047 A 
ATOM      4  C   UNL     1      10.282   4.012  -8.556  0.00  0.00    +0.018 A 
ATOM      5  C   UNL     1       8.634   4.521  -8.401  0.00  0.00    +0.004 A 
ATOM      6  C   UNL     1       9.427   4.032  -8.038  0.00  0.00    +0.001 A 
ENDROOT
BRANCH   2   8
ATOM      7  O   UNL     1      11.346   3.756 -10.651  0.00  0.00    -0.245 OA
ATOM      8  C   UNL     1      11.199   4.459  -9.955  0.00  0.00    +0.340 C 
BRANCH   8   9
ATOM      9  O   UNL     1      11.909   5.141  -9.777  0.00  0.00    -0.477 OA
ATOM     10  H   UNL     1      12.483   5.055  -9.994  0.00  0.00    +0.295 HD
ENDBRANCH   8   9
ENDBRANCH   2   8
BRANCH   1  11
ATOM     11  O   UNL     1       9.614   5.437 -10.682  0.00  0.00    -0.425 OA
BRANCH  11  13
ATOM     12  O   UNL     1       9.118   7.094 -10.586  0.00  0.00    -0.251 OA
ATOM     13  C   UNL     1       8.963   6.161 -10.911  0.00  0.00    +0.309 C 
ATOM     14  C   UNL     1       8.157   5.952 -11.465  0.00  0.00    +0.136 C 
ENDBRANCH  11  13
ENDBRANCH   1  11
TORSDOF 4
ENDMDL
MODEL 3
REMARK VINA RESULT:      -4.0      1.431      2.778
REMARK  Name = 2244
REMARK  5 active torsions:
REMARK  status: ('A' for Active; 'I' for Inactive)
REMARK    1  A    between atoms: O_1  and  C_5
REMARK    2  A    between atoms: O_1  and  C_12
REMARK    3  A    between atoms: O_2  and  C_11
REMARK    4  A    between atoms: C_6  and  C_11
REMARK    5  A    between atoms: C_12  and  C_13
REMARK                            x       y       z     vdW  Elec       q    Type
REMARK                         _______ _______ _______ _____ _____    ______ ____
ROOT
ATOM      1  C   UNL     1       8.345   5.727  -9.486  0.00  0.00    +0.146 A 
ATOM      2  C   UNL     1       8.881   5.980 -10.292  0.00  0.00    +0.101 A 
ATOM      3  C   UNL     1       8.611   4.935  -8.937  0.00  0.00    +0.047 A 
ATOM      4  C   UNL     1       9.684   5.441 -10.547  0.00  0.00    +0.018 A 
ATOM      5  C   UNL     1       9.413   4.396  -9.192  0.00  0.00    +0.004 A 
ATOM      6  C   UNL     1       9.950   4.649  -9.997  0.00  0.00    +0.001 A 
ENDROOT
BRANCH   2   8
ATOM      7  O   UNL     1       7.945   6.667 -11.576  0.00  0.00    -0.245 OA
ATOM      8  C   UNL     1       8.615   6.771 -10.841  0.00  0.00    +0.340 C 
BRANCH   8   9
ATOM      9  O   UNL     1       9.019   7.667 -10.656  0.00  0.00    -0.477 OA
ATOM     10  H   UNL     1       8.792   8.173 -10.934  0.00  0.00    +0.295 HD
ENDBRANCH   8   9
ENDBRANCH   2   8
BRANCH   1  11
ATOM     11  O   UNL     1       7.542   6.266  -9.231  0.00  0.00    -0.425 OA
BRANCH  11  13
ATOM     12  O   UNL     1       7.414   6.396  -7.509  0.00  0.00    -0.251 OA
ATOM     13  C   UNL     1       7.055   6.065  -8.382  0.00  0.00    +0.309 C 
ATOM     14  C   UNL     1       6.208   5.533  -8.405  0.00  0.00    +0.136 C 
ENDBRANCH  11  13
ENDBRANCH   1  11
TORSDOF 4
ENDMDL
MODEL 4
REMARK VINA RESULT:      -3.9      3.628      4.685
REMARK  Name = 2244
REMARK  5 active torsions:
REMARK  status: ('A' for Active; 'I' for Inactive)
REMARK    1  A    between atoms: O_1  and  C_5
REMARK    2  A    between atoms: O_1  and  C_12
REMARK    3  A    between atoms: O_2  and  C_11
REMARK    4  A    between atoms: C_6  and  C_11
REMARK    5  A    between atoms: C_12  and  C_13
REMARK                            x       y       z     vdW  Elec       q    Type
REMARK                         _______ _______ _______ _____ _____    ______ ____
ROOT
ATOM      1  C   UNL     1       6.754   6.398  -6.944  0.00  0.00    +0.146 A 
ATOM      2  C   UNL     1       6.685   6.709  -5.996  0.00  0.00    +0.101 A 
ATOM      3  C   UNL     1       5.987   6.531  -7.571  0.00  0.00    +0.047 A 
ATOM      4  C   UNL     1       5.849   7.154  -5.676  0.00  0.00    +0.018 A 
ATOM      5  C   UNL     1       5.151   6.976  -7.251  0.00  0.00    +0.004 A 
ATOM      6  C   UNL     1       5.081   7.287  -6.303  0.00  0.00    +0.001 A 
ENDROOT
BRANCH   2   8
ATOM      7  O   UNL     1       7.532   5.725  -4.850  0.00  0.00    -0.245 OA
ATOM      8  C   UNL     1       7.452   6.576  -5.369  0.00  0.00    +0.340 C 
BRANCH   8   9
ATOM      9  O   UNL     1       8.140   7.294  -5.260  0.00  0.00    -0.477 OA
ATOM     10  H   UNL     1       8.339   7.610  -5.755  0.00  0.00    +0.295 HD
ENDBRANCH   8   9
ENDBRANCH   2   8
BRANCH   1  11
ATOM     11  O   UNL     1       7.591   5.953  -7.264  0.00  0.00    -0.425 OA
BRANCH  11  13
ATOM     12  O   UNL     1       7.862   6.215  -8.955  0.00  0.00    -0.251 OA
ATOM     13  C   UNL     1       7.643   5.599  -8.198  0.00  0.00    +0.309 C 
ATOM     14  C   UNL     1       7.476   4.629  -8.375  0.00  0.00    +0.136 C 
ENDBRANCH  11  13
ENDBRANCH   1  11
TORSDOF 4
ENDMDL
MODEL 5
REMARK VINA RESULT:      -3.8      6.389      7.539
REMARK  Name = 2244
REMARK  5 active torsions:
REMARK  status: ('A' for Active; 'I' for Inactive)
REMARK    1  A    between atoms: O_1  and  C_5
REMARK    2  A    between atoms: O_1  and  C_12
REMARK    3  A    between atoms: O_2  and  C_11
REMARK    4  A    between atoms: C_6  and  C_11
REMARK    5  A    between atoms: C_12  and  C_13
REMARK                            x       y       z     vdW  Elec       q    Type
REMARK                         _______ _______ _______ _____ _____    ______ ____
ROOT
ATOM      1  C   UNL     1       6.992   6.635  -3.286  0.00  0.00    +0.146 A 
ATOM      2  C   UNL     1       7.436   6.464  -4.166  0.00  0.00    +0.101 A 
ATOM      3  C   UNL     1       6.064   6.300  -3.121  0.00  0.00    +0.047 A 
ATOM      4  C   UNL     1       6.953   5.957  -4.880  0.00  0.00    +0.018 A 
ATOM      5  C   UNL     1       5.581   5.793  -3.835  0.00  0.00    +0.004 A 
ATOM      6  C   UNL     1       6.026   5.622  -4.715  0.00  0.00    +0.001 A 
ENDROOT
BRANCH   2   8
ATOM      7  O   UNL     1       9.149   6.287  -3.985  0.00  0.00    -0.245 OA
ATOM      8  C   UNL     1       8.363   6.799  -4.331  0.00  0.00    +0.340 C 
BRANCH   8   9
ATOM      9  O   UNL     1       8.505   7.647  -4.841  0.00  0.00    -0.477 OA
ATOM     10  H   UNL     1       9.077   7.814  -5.013  0.00  0.00    +0.295 HD
ENDBRANCH   8   9
ENDBRANCH   2   8
BRANCH   1  11
ATOM     11  O   UNL     1       7.475   7.142  -2.572  0.00  0.00    -0.425 OA
BRANCH  11  13
ATOM     12  O   UNL     1       7.278   6.341  -1.049  0.00  0.00    -0.251 OA
ATOM     13  C   UNL     1       7.128   7.137  -1.634  0.00  0.00    +0.309 C 
ATOM     14  C   UNL     1       6.630   7.930  -1.282  0.00  0.00    +0.136 C 
ENDBRANCH  11  13
ENDBRANCH   1  11
TORSDOF 4
ENDMDL
MODEL 6
REMARK VINA RESULT:      -3.8      1.593      2.401
REMARK  Name = 2244
REMARK  5 active torsions:
REMARK  status: ('A' for Active; 'I' for Inactive)
REMARK    1  A    between atoms: O_1  and  C_5
REMARK    2  A    between atoms: O_1  and  C_12
REMARK    3  A    between atoms: O_2  and  C_11
REMARK    4  A    between atoms: C_6  and  C_11
REMARK    5  A    between atoms: C_12  and  C_13
REMARK                            x       y       z     vdW  Elec       q    Type
REMARK                         _______ _______ _______ _____ _____    ______ ____
ROOT
ATOM      1  C   UNL     1       9.397   4.893  -9.399  0.00  0.00    +0.146 A 
ATOM      2  C   UNL     1       8.645   4.898  -8.740  0.00  0.00    +0.101 A 
ATOM      3  C   UNL     1       9.342   5.454 -10.225  0.00  0.00    +0.047 A 
ATOM      4  C   UNL     1       7.837   5.463  -8.908  0.00  0.00    +0.018 A 
ATOM      5  C   UNL     1       8.534   6.020 -10.392  0.00  0.00    +0.004 A 
ATOM      6  C   UNL     1       7.782   6.024  -9.734  0.00  0.00    +0.001 A 
ENDROOT
BRANCH   2   8
ATOM      7  O   UNL     1       8.376   3.391  -7.930  0.00  0.00    -0.245 OA
ATOM      8  C   UNL     1       8.700   4.337  -7.914  0.00  0.00    +0.340 C 
BRANCH   8   9
ATOM      9  O   UNL     1       9.080   4.721  -7.073  0.00  0.00    -0.477 OA
ATOM     10  H   UNL     1       9.294   4.345  -6.629  0.00  0.00    +0.295 HD
ENDBRANCH   8   9
ENDBRANCH   2   8
BRANCH   1  11
ATOM     11  O   UNL     1      10.205   4.328  -9.232  0.00  0.00    -0.425 OA
BRANCH  11  13
ATOM     12  O   UNL     1      11.648   5.101  -9.798  0.00  0.00    -0.251 OA
ATOM     13  C   UNL     1      10.978   4.361  -9.865  0.00  0.00    +0.309 C 
ATOM     14  C   UNL     1      11.082   3.655 -10.565  0.00  0.00    +0.136 C 
ENDBRANCH  11  13
ENDBRANCH   1  11
TORSDOF 4
ENDMDL
MODEL 7
REMARK VINA RESULT:      -3.6      1.839      2.871
REMARK  Name = 2244
REMARK  5 active torsions:
REMARK  status: ('A' for Active; 'I' for Inactive)
REMARK    1  A    between atoms: O_1  and  C_5
REMARK    2  A    between atoms: O_1  and  C_12
REMARK    3  A    between atoms: O_2  and  C_11
REMARK    4  A    between atoms: C_6  and  C_11
REMARK    5  A    between atoms: C_12  and  C_13
REMARK                            x       y       z     vdW  Elec       q    Type
REMARK                         _______ _______ _______ _____ _____    ______ ____
ROOT
ATOM      1  C   UNL     1       9.640   4.628  -9.329  0.00  0.00    +0.146 A 
ATOM      2  C   UNL     1      10.226   4.908 -10.089  0.00  0.00    +0.101 A 
ATOM      3  C   UNL     1       8.707   4.981  -9.262  0.00  0.00    +0.047 A 
ATOM      4  C   UNL     1       9.880   5.542 -10.781  0.00  0.00    +0.018 A 
ATOM      5  C   UNL     1       8.360   5.614  -9.953  0.00  0.00    +0.004 A 
ATOM      6  C   UNL     1       8.947   5.895 -10.713  0.00  0.00    +0.001 A 
ENDROOT
BRANCH   2   8
ATOM      7  O   UNL     1      11.352   3.756 -10.726  0.00  0.00    -0.245 OA
ATOM      8  C   UNL     1      11.160   4.556 -10.157  0.00  0.00    +0.340 C 
BRANCH   8   9
ATOM      9  O   UNL     1      11.901   5.002  -9.656  0.00  0.00    -0.477 OA
ATOM     10  H   UNL     1      11.832   5.584  -9.454  0.00  0.00    +0.295 HD
ENDBRANCH   8   9
ENDBRANCH   2   8
BRANCH   1  11
ATOM     11  O   UNL     1       9.986   3.994  -8.638  0.00  0.00    -0.425 OA
BRANCH  11  13
ATOM     12  O   UNL     1       9.156   4.183  -7.129  0.00  0.00    -0.251 OA
ATOM     13  C   UNL     1       9.371   3.634  -7.937  0.00  0.00    +0.309 C 
ATOM     14  C   UNL     1       8.970   2.724  -8.044  0.00  0.00    +0.136 C 
ENDBRANCH  11  13
ENDBRANCH   1  11
TORSDOF 4
ENDMDL
MODEL 8
REMARK VINA RESULT:      -3.5      3.877      5.099
REMARK  Name = 2244
REMARK  5 active torsions:
REMARK  status: ('A' for Active; 'I' for Inactive)
REMARK    1  A    between atoms: O_1  and  C_5
REMARK    2  A    between atoms: O_1  and  C_12
REMARK    3  A    between atoms: O_2  and  C_11
REMARK    4  A    between atoms: C_6  and  C_11
REMARK    5  A    between atoms: C_12  and  C_13
REMARK                            x       y       z     vdW  Elec       q    Type
REMARK                         _______ _______ _______ _____ _____    ______ ____
ROOT
ATOM      1  C   UNL     1       7.100   6.166  -6.030  0.00  0.00    +0.146 A 
ATOM      2  C   UNL     1       7.135   5.702  -6.915  0.00  0.00    +0.101 A 
ATOM      3  C   UNL     1       6.384   6.839  -5.846  0.00  0.00    +0.047 A 
ATOM      4  C   UNL     1       6.453   5.911  -7.616  0.00  0.00    +0.018 A 
ATOM      5  C   UNL     1       5.702   7.048  -6.548  0.00  0.00    +0.004 A 
ATOM      6  C   UNL     1       5.737   6.584  -7.433  0.00  0.00    +0.001 A 
ENDROOT
BRANCH   2   8
ATOM      7  O   UNL     1       7.738   4.083  -6.796  0.00  0.00    -0.245 OA
ATOM      8  C   UNL     1       7.851   5.029  -7.099  0.00  0.00    +0.340 C 
BRANCH   8   9
ATOM      9  O   UNL     1       8.680   5.302  -7.587  0.00  0.00    -0.477 OA
ATOM     10  H   UNL     1       9.081   5.694  -7.322  0.00  0.00    +0.295 HD
ENDBRANCH   8   9
ENDBRANCH   2   8
BRANCH   1  11
ATOM     11  O   UNL     1       7.782   5.957  -5.329  0.00  0.00    -0.425 OA
BRANCH  11  13
ATOM     12  O   UNL     1       8.450   7.426  -4.698  0.00  0.00    -0.251 OA
ATOM     13  C   UNL     1       7.922   6.587  -4.565  0.00  0.00    +0.309 C 
ATOM     14  C   UNL     1       7.535   6.377  -3.667  0.00  0.00    +0.136 C 
ENDBRANCH  11  13
ENDBRANCH   1  11
TORSDOF 4
ENDMDL
MODEL 9
REMARK VINA RESULT:      -3.5      1.909      2.982
REMARK  Name = 2244
REMARK  5 active torsions:
REMARK  status: ('A' for Active; 'I' for Inactive)
REMARK    1  A    between atoms: O_1  and  C_5
REMARK    2  A    between atoms: O_1  and  C_12
REMARK    3  A    between atoms: O_2  and  C_11
REMARK    4  A    between atoms: C_6  and  C_11
REMARK    5  A    between atoms: C_12  and  C_13
REMARK                            x       y       z     vdW  Elec       q    Type
REMARK                         _______ _______ _______ _____ _____    ______ ____
ROOT
ATOM      1  C   UNL     1       8.935   5.146  -9.162  0.00  0.00    +0.146 A 
ATOM      2  C   UNL     1       8.762   4.703  -8.282  0.00  0.00    +0.101 A 
ATOM      3  C   UNL     1       9.719   4.868  -9.716  0.00  0.00    +0.047 A 
ATOM      4  C   UNL     1       9.373   3.982  -7.957  0.00  0.00    +0.018 A 
ATOM      5  C   UNL     1      10.330   4.146  -9.391  0.00  0.00    +0.004 A 
ATOM      6  C   UNL     1      10.157   3.703  -8.511  0.00  0.00    +0.001 A 
ENDROOT
BRANCH   2   8
ATOM      7  O   UNL     1       7.095   4.527  -7.845  0.00  0.00    -0.245 OA
ATOM      8  C   UNL     1       7.978   4.982  -7.728  0.00  0.00    +0.340 C 
BRANCH   8   9
ATOM      9  O   UNL     1       8.076   5.716  -7.056  0.00  0.00    -0.477 OA
ATOM     10  H   UNL     1       7.630   6.143  -6.995  0.00  0.00    +0.295 HD
ENDBRANCH   8   9
ENDBRANCH   2   8
BRANCH   1  11
ATOM     11  O   UNL     1       8.324   5.868  -9.487  0.00  0.00    -0.425 OA
BRANCH  11  13
ATOM     12  O   UNL     1       9.129   7.028 -10.490  0.00  0.00    -0.251 OA
ATOM     13  C   UNL     1       8.472   6.281 -10.385  0.00  0.00    +0.309 C 
ATOM     14  C   UNL     1       7.964   5.948 -11.179  0.00  0.00    +0.136 C 
ENDBRANCH  11  13
ENDBRANCH   1  11
TORSDOF 4
ENDMDL
