MODEL 1
REMARK VINA RESULT:      -4.5      0.000      0.000
REMARK  Name = 2244
REMARK  5 active torsions:
REMARK  status: ('A' for Active; 'I' for Inactive)
REMARK    1  A    between atoms: O_1  and  C_5
REMARK    2  A    between atoms: O_1  and  C_12
REMARK    3  A    between atoms: O_2  and  C_11
REMARK    4  A    between atoms: C_6  and  C_11
REMARK    5  A    between atoms: C_12  and  C_13
REMARK                            x       y       z     vdW  Elec       q    Type
REMARK                         _______ _______ _______ _____ _____    ______ ____
ROOT
ATOM      1  C   UNL     1       9.328   5.384  -9.940  0.00  0.00    +0.146 A 
ATOM      2  C   UNL     1       8.587   6.042 -10.075  0.00  0.00    +0.101 A 
ATOM      3  C   UNL     1       9.275   4.718  -9.196  0.00  0.00    +0.047 A 
ATOM      4  C   UNL     1       7.794   6.034  -9.466  0.00  0.00    +0.018 A 
ATOM      5  C   UNL     1       8.482   4.709  -8.587  0.00  0.00    +0.004 A 
ATOM      6  C   UNL     1       7.742   5.368  -8.722  0.00  0.00    +0.001 A 
ENDROOT
BRANCH   2   8
ATOM      7  O   UNL     1       8.288   6.475 -11.725  0.00  0.00    -0.245 OA
ATOM      8  C   UNL     1       8.640   6.709 -10.818  0.00  0.00    +0.340 C 
BRANCH   8   9
ATOM      9  O   UNL     1       9.045   7.609 -10.656  0.00  0.00    -0.477 OA
ATOM     10  H   UNL     1       9.628   7.654 -10.450  0.00  0.00    +0.295 HD
ENDBRANCH   8   9
ENDBRANCH   2   8
BRANCH   1  11
ATOM     11  O   UNL     1      10.121   5.392 -10.549  0.00  0.00    -0.425 OA
BRANCH  11  13
ATOM     12  O   UNL     1      11.623   5.049  -9.757  0.00  0.00    -0.251 OA
ATOM     13  C   UNL     1      10.889   4.775 -10.378  0.00  0.00    +0.309 C 
ATOM     14  C   UNL     1      10.922   3.882 -10.828  0.00  0.00    +0.136 C 
ENDBRANCH  11  13
ENDBRANCH   1  11
TORSDOF 4
ENDMDL
MODEL 2
REMARK VINA RESULT:      -4.2      0.912      2.746
REMARK  Name = 2244
REMARK  5 active torsions:
REMARK  status: ('A' for Active; 'I' for Inactive)
REMARK    1  A    between atoms: O_1  and  C_5
REMARK    2  A    between atoms: O_1  and  C_12
REMARK    3  A    between atoms: O_2  and  C_11
REMARK    4  A    between atoms: C_6  and  C_11
REMARK    5  A    between atoms: C_12  and  C_13
REMARK                            x       y       z     vdW  Elec       q    Type
REMARK                         _______ _______ _______ _____ _____    ______ ____
ROOT
ATOM      1  C   UNL     1       9.534   4.962  -9.772  0.00  0.00    +0.146 A 
ATOM      2  C   UNL     1      10.334   4.474  -9.424  0.00  0.00    +0.101 A 
ATOM      3  C   UNL     1       8.688   4.979  -9.239  0.00  0.00    +0.047 A 
ATOM      4  C   UNL     1      10.289   4.003  -8.543  0.00  0.00    +0.018 A 
ATOM      5  C   UNL     1       8.643   4.509  -8.358  0.00  0.00    +0.004 A 
ATOM      6  C   UNL     1       9.443   4.021  -8.009  0.00  0.00    +0.001 A 
ENDROOT
BRANCH   2   8
ATOM      7  O   UNL     1      11.303   3.774 -10.678  0.00  0.00    -0.245 OA
ATOM      8  C   UNL     1      11.180   4.456  -9.957  0.00  0.00    +0.340 C 
BRANCH   8   9
ATOM      9  O   UNL     1      11.904   5.121  -9.769  0.00  0.00    -0.477 OA
ATOM     10  H   UNL     1      11.774   5.639  -9.455  0.00  0.00    +0.295 HD
ENDBRANCH   8   9
ENDBRANCH   2   8
BRANCH   1  11
ATOM     11  O   UNL     1       9.579   5.432 -10.653  0.00  0.00    -0.425 OA
BRANCH  11  13
ATOM     12  O   UNL     1       9.135   7.103 -10.550  0.00  0.00    -0.251 OA
ATOM     13  C   UNL     1       8.939   6.172 -10.858  0.00  0.00    +0.309 C 
ATOM     14  C   UNL     1       8.102   5.981 -11.372  0.00  0.00    +0.136 C 
ENDBRANCH  11  13
ENDBRANCH   1  11
TORSDOF 4
ENDMDL
MODEL 3
REMARK VINA RESULT:      -4.0      1.425      2.748
REMARK  Name = 2244
REMARK  5 active torsions:
REMARK  status: ('A' for Active; 'I' for Inactive)
REMARK    1  A    between atoms: O_1  and  C_5
REMARK    2  A    between atoms: O_1  and  C_12
REMARK    3  A    between atoms: O_2  and  C_11
REMARK    4  A    between atoms: C_6  and  C_11
REMARK    5  A    between atoms: C_12  and  C_13
REMARK                            x       y       z     vdW  Elec       q    Type
REMARK                         _______ _______ _______ _____ _____    ______ ____
ROOT
ATOM      1  C   UNL     1       8.418   5.713  -9.531  0.00  0.00    +0.146 A 
ATOM      2  C   UNL     1       8.948   5.982 -10.335  0.00  0.00    +0.101 A 
ATOM      3  C   UNL     1       8.699   4.920  -8.990  0.00  0.00    +0.047 A 
ATOM      4  C   UNL     1       9.757   5.458 -10.599  0.00  0.00    +0.018 A 
ATOM      5  C   UNL     1       9.508   4.396  -9.254  0.00  0.00    +0.004 A 
ATOM      6  C   UNL     1      10.038   4.665 -10.059  0.00  0.00    +0.001 A 
ENDROOT
BRANCH   2   8
ATOM      7  O   UNL     1       8.010   6.666 -11.621  0.00  0.00    -0.245 OA
ATOM      8  C   UNL     1       8.667   6.776 -10.876  0.00  0.00    +0.340 C 
BRANCH   8   9
ATOM      9  O   UNL     1       9.045   7.679 -10.671  0.00  0.00    -0.477 OA
ATOM     10  H   UNL     1       9.164   7.839 -10.084  0.00  0.00    +0.295 HD
ENDBRANCH   8   9
ENDBRANCH   2   8
BRANCH   1  11
ATOM     11  O   UNL     1       7.608   6.237  -9.267  0.00  0.00    -0.425 OA
BRANCH  11  13
ATOM     12  O   UNL     1       7.443   6.346  -7.546  0.00  0.00    -0.251 OA
ATOM     13  C   UNL     1       7.115   6.007  -8.428  0.00  0.00    +0.309 C 
ATOM     14  C   UNL     1       6.295   5.437  -8.471  0.00  0.00    +0.136 C 
ENDBRANCH  11  13
ENDBRANCH   1  11
TORSDOF 4
ENDMDL
MODEL 4
REMARK VINA RESULT:      -3.9      3.621      4.682
REMARK  Name = 2244
REMARK  5 active torsions:
REMARK  status: ('A' for Active; 'I' for Inactive)
REMARK    1  A    between atoms: O_1  and  C_5
REMARK    2  A    between atoms: O_1  and  C_12
REMARK    3  A    between atoms: O_2  and  C_11
REMARK    4  A    between atoms: C_6  and  C_11
REMARK    5  A    between atoms: C_12  and  C_13
REMARK                            x       y       z     vdW  Elec       q    Type
REMARK                         _______ _______ _______ _____ _____    ______ ____
ROOT
ATOM      1  C   UNL     1       6.751   6.400  -6.955  0.00  0.00    +0.146 A 
ATOM      2  C   UNL     1       6.683   6.711  -6.007  0.00  0.00    +0.101 A 
ATOM      3  C   UNL     1       5.982   6.533  -7.581  0.00  0.00    +0.047 A 
ATOM      4  C   UNL     1       5.847   7.155  -5.685  0.00  0.00    +0.018 A 
ATOM      5  C   UNL     1       5.146   6.977  -7.259  0.00  0.00    +0.004 A 
ATOM      6  C   UNL     1       5.079   7.288  -6.311  0.00  0.00    +0.001 A 
ENDROOT
BRANCH   2   8
ATOM      7  O   UNL     1       7.537   5.723  -4.869  0.00  0.00    -0.245 OA
ATOM      8  C   UNL     1       7.452   6.578  -5.381  0.00  0.00    +0.340 C 
BRANCH   8   9
ATOM      9  O   UNL     1       8.135   7.299  -5.268  0.00  0.00    -0.477 OA
ATOM     10  H   UNL     1       8.696   7.239  -5.526  0.00  0.00    +0.295 HD
ENDBRANCH   8   9
ENDBRANCH   2   8
BRANCH   1  11
ATOM     11  O   UNL     1       7.587   5.956  -7.277  0.00  0.00    -0.425 OA
BRANCH  11  13
ATOM     12  O   UNL     1       7.865   6.219  -8.967  0.00  0.00    -0.251 OA
ATOM     13  C   UNL     1       7.638   5.604  -8.212  0.00  0.00    +0.309 C 
ATOM     14  C   UNL     1       7.461   4.636  -8.391  0.00  0.00    +0.136 C 
ENDBRANCH  11  13
ENDBRANCH   1  11
TORSDOF 4
ENDMDL
MODEL 5
REMARK VINA RESULT:      -3.9      6.323      7.474
REMARK  Name = 2244
REMARK  5 active torsions:
REMARK  status: ('A' for Active; 'I' for Inactive)
REMARK    1  A    between atoms: O_1  and  C_5
REMARK    2  A    between atoms: O_1  and  C_12
REMARK    3  A    between atoms: O_2  and  C_11
REMARK    4  A    between atoms: C_6  and  C_11
REMARK    5  A    between atoms: C_12  and  C_13
REMARK                            x       y       z     vdW  Elec       q    Type
REMARK                         _______ _______ _______ _____ _____    ______ ____
ROOT
ATOM      1  C   UNL     1       7.079   6.743  -3.378  0.00  0.00    +0.146 A 
ATOM      2  C   UNL     1       7.555   6.592  -4.245  0.00  0.00    +0.101 A 
ATOM      3  C   UNL     1       6.115   6.495  -3.287  0.00  0.00    +0.047 A 
ATOM      4  C   UNL     1       7.067   6.193  -5.020  0.00  0.00    +0.018 A 
ATOM      5  C   UNL     1       5.626   6.095  -4.063  0.00  0.00    +0.004 A 
ATOM      6  C   UNL     1       6.102   5.944  -4.930  0.00  0.00    +0.001 A 
ENDROOT
BRANCH   2   8
ATOM      7  O   UNL     1       9.231   6.194  -4.060  0.00  0.00    -0.245 OA
ATOM      8  C   UNL     1       8.519   6.841  -4.335  0.00  0.00    +0.340 C 
BRANCH   8   9
ATOM      9  O   UNL     1       8.773   7.737  -4.701  0.00  0.00    -0.477 OA
ATOM     10  H   UNL     1       8.449   7.983  -5.169  0.00  0.00    +0.295 HD
ENDBRANCH   8   9
ENDBRANCH   2   8
BRANCH   1  11
ATOM     11  O   UNL     1       7.568   7.143  -2.602  0.00  0.00    -0.425 OA
BRANCH  11  13
ATOM     12  O   UNL     1       7.175   6.252  -1.170  0.00  0.00    -0.251 OA
ATOM     13  C   UNL     1       7.166   7.108  -1.687  0.00  0.00    +0.309 C 
ATOM     14  C   UNL     1       6.756   7.929  -1.289  0.00  0.00    +0.136 C 
ENDBRANCH  11  13
ENDBRANCH   1  11
TORSDOF 4
ENDMDL
MODEL 6
REMARK VINA RESULT:      -3.8      1.601      2.412
REMARK  Name = 2244
REMARK  5 active torsions:
REMARK  status: ('A' for Active; 'I' for Inactive)
REMARK    1  A    between atoms: O_1  and  C_5
REMARK    2  A    between atoms: O_1  and  C_12
REMARK    3  A    between atoms: O_2  and  C_11
REMARK    4  A    between atoms: C_6  and  C_11
REMARK    5  A    between atoms: C_12  and  C_13
REMARK                            x       y       z     vdW  Elec       q    Type
REMARK                         _______ _______ _______ _____ _____    ______ ____
ROOT
ATOM      1  C   UNL     1       9.407   4.870  -9.391  0.00  0.00    +0.146 A 
ATOM      2  C   UNL     1       8.654   4.869  -8.734  0.00  0.00    +0.101 A 
ATOM      3  C   UNL     1       9.347   5.427 -10.220  0.00  0.00    +0.047 A 
ATOM      4  C   UNL     1       7.840   5.425  -8.905  0.00  0.00    +0.018 A 
ATOM      5  C   UNL     1       8.533   5.983 -10.391  0.00  0.00    +0.004 A 
ATOM      6  C   UNL     1       7.780   5.982  -9.733  0.00  0.00    +0.001 A 
ENDROOT
BRANCH   2   8
ATOM      7  O   UNL     1       8.393   3.365  -7.915  0.00  0.00    -0.245 OA
ATOM      8  C   UNL     1       8.714   4.312  -7.905  0.00  0.00    +0.340 C 
BRANCH   8   9
ATOM      9  O   UNL     1       9.096   4.702  -7.067  0.00  0.00    -0.477 OA
ATOM     10  H   UNL     1       8.859   5.226  -6.834  0.00  0.00    +0.295 HD
ENDBRANCH   8   9
ENDBRANCH   2   8
BRANCH   1  11
ATOM     11  O   UNL     1      10.221   4.315  -9.221  0.00  0.00    -0.425 OA
BRANCH  11  13
ATOM     12  O   UNL     1      11.656   5.091  -9.802  0.00  0.00    -0.251 OA
ATOM     13  C   UNL     1      10.991   4.347  -9.858  0.00  0.00    +0.309 C 
ATOM     14  C   UNL     1      11.096   3.633 -10.551  0.00  0.00    +0.136 C 
ENDBRANCH  11  13
ENDBRANCH   1  11
TORSDOF 4
ENDMDL
MODEL 7
REMARK VINA RESULT:      -3.7      4.725      5.820
REMARK  Name = 2244
REMARK  5 active torsions:
REMARK  status: ('A' for Active; 'I' for Inactive)
REMARK    1  A    between atoms: O_1  and  C_5
REMARK    2  A    between atoms: O_1  and  C_12
REMARK    3  A    between atoms: O_2  and  C_11
REMARK    4  A    between atoms: C_6  and  C_11
REMARK    5  A    between atoms: C_12  and  C_13
REMARK                            x       y       z     vdW  Elec       q    Type
REMARK                         _______ _______ _______ _____ _____    ______ ____
ROOT
ATOM      1  C   UNL     1       7.200   6.342  -5.103  0.00  0.00    +0.146 A 
ATOM      2  C   UNL     1       7.682   6.577  -4.259  0.00  0.00    +0.101 A 
ATOM      3  C   UNL     1       6.250   6.035  -5.067  0.00  0.00    +0.047 A 
ATOM      4  C   UNL     1       7.213   6.505  -3.379  0.00  0.00    +0.018 A 
ATOM      5  C   UNL     1       5.780   5.962  -4.187  0.00  0.00    +0.004 A 
ATOM      6  C   UNL     1       6.262   6.197  -3.343  0.00  0.00    +0.001 A 
ENDROOT
BRANCH   2   8
ATOM      7  O   UNL     1       8.840   7.853  -4.435  0.00  0.00    -0.245 OA
ATOM      8  C   UNL     1       8.633   6.885  -4.295  0.00  0.00    +0.340 C 
BRANCH   8   9
ATOM      9  O   UNL     1       9.376   6.224  -4.190  0.00  0.00    -0.477 OA
ATOM     10  H   UNL     1       9.582   5.908  -4.682  0.00  0.00    +0.295 HD
ENDBRANCH   8   9
ENDBRANCH   2   8
BRANCH   1  11
ATOM     11  O   UNL     1       7.670   6.414  -5.983  0.00  0.00    -0.425 OA
BRANCH  11  13
ATOM     12  O   UNL     1       7.862   4.811  -6.610  0.00  0.00    -0.251 OA
ATOM     13  C   UNL     1       7.497   5.738  -6.699  0.00  0.00    +0.309 C 
ATOM     14  C   UNL     1       6.958   5.988  -7.504  0.00  0.00    +0.136 C 
ENDBRANCH  11  13
ENDBRANCH   1  11
TORSDOF 4
ENDMDL
MODEL 8
REMARK VINA RESULT:      -3.6      1.810      2.824
REMARK  Name = 2244
REMARK  5 active torsions:
REMARK  status: ('A' for Active; 'I' for Inactive)
REMARK    1  A    between atoms: O_1  and  C_5
REMARK    2  A    between atoms: O_1  and  C_12
REMARK    3  A    between atoms: O_2  and  C_11
REMARK    4  A    between atoms: C_6  and  C_11
REMARK    5  A    between atoms: C_12  and  C_13
REMARK                            x       y       z     vdW  Elec       q    Type
REMARK                         _______ _______ _______ _____ _____    ______ ____
ROOT
ATOM      1  C   UNL     1       9.691   4.526  -9.265  0.00  0.00    +0.146 A 
ATOM      2  C   UNL     1      10.213   4.884 -10.039  0.00  0.00    +0.101 A 
ATOM      3  C   UNL     1       8.751   4.833  -9.111  0.00  0.00    +0.047 A 
ATOM      4  C   UNL     1       9.796   5.549 -10.659  0.00  0.00    +0.018 A 
ATOM      5  C   UNL     1       8.335   5.498  -9.731  0.00  0.00    +0.004 A 
ATOM      6  C   UNL     1       8.857   5.856 -10.505  0.00  0.00    +0.001 A 
ENDROOT
BRANCH   2   8
ATOM      7  O   UNL     1      11.335   3.826 -10.827  0.00  0.00    -0.245 OA
ATOM      8  C   UNL     1      11.152   4.577 -10.193  0.00  0.00    +0.340 C 
BRANCH   8   9
ATOM      9  O   UNL     1      11.909   5.022  -9.713  0.00  0.00    -0.477 OA
ATOM     10  H   UNL     1      12.455   4.734  -9.662  0.00  0.00    +0.295 HD
ENDBRANCH   8   9
ENDBRANCH   2   8
BRANCH   1  11
ATOM     11  O   UNL     1      10.108   3.861  -8.645  0.00  0.00    -0.425 OA
BRANCH  11  13
ATOM     12  O   UNL     1       9.400   4.008  -7.071  0.00  0.00    -0.251 OA
ATOM     13  C   UNL     1       9.571   3.471  -7.897  0.00  0.00    +0.309 C 
ATOM     14  C   UNL     1       9.206   2.543  -7.975  0.00  0.00    +0.136 C 
ENDBRANCH  11  13
ENDBRANCH   1  11
TORSDOF 4
ENDMDL
MODEL 9
REMARK VINA RESULT:      -3.5      3.952      5.175
REMARK  Name = 2244
REMARK  5 active torsions:
REMARK  status: ('A' for Active; 'I' for Inactive)
REMARK    1  A    between atoms: O_1  and  C_5
REMARK    2  A    between atoms: O_1  and  C_12
REMARK    3  A    between atoms: O_2  and  C_11
REMARK    4  A    between atoms: C_6  and  C_11
REMARK    5  A    between atoms: C_12  and  C_13
REMARK                            x       y       z     vdW  Elec       q    Type
REMARK                         _______ _______ _______ _____ _____    ______ ____
ROOT
ATOM      1  C   UNL     1       7.063   6.179  -5.970  0.00  0.00    +0.146 A 
ATOM      2  C   UNL     1       7.101   5.735  -6.865  0.00  0.00    +0.101 A 
ATOM      3  C   UNL     1       6.352   6.856  -5.778  0.00  0.00    +0.047 A 
ATOM      4  C   UNL     1       6.429   5.967  -7.568  0.00  0.00    +0.018 A 
ATOM      5  C   UNL     1       5.680   7.088  -6.481  0.00  0.00    +0.004 A 
ATOM      6  C   UNL     1       5.718   6.644  -7.376  0.00  0.00    +0.001 A 
ENDROOT
BRANCH   2   8
ATOM      7  O   UNL     1       7.688   4.108  -6.771  0.00  0.00    -0.245 OA
ATOM      8  C   UNL     1       7.812   5.058  -7.057  0.00  0.00    +0.340 C 
BRANCH   8   9
ATOM      9  O   UNL     1       8.647   5.331  -7.535  0.00  0.00    -0.477 OA
ATOM     10  H   UNL     1       8.789   5.932  -7.592  0.00  0.00    +0.295 HD
ENDBRANCH   8   9
ENDBRANCH   2   8
BRANCH   1  11
ATOM     11  O   UNL     1       7.735   5.947  -5.267  0.00  0.00    -0.425 OA
BRANCH  11  13
ATOM     12  O   UNL     1       8.368   7.374  -4.515  0.00  0.00    -0.251 OA
ATOM     13  C   UNL     1       7.836   6.529  -4.460  0.00  0.00    +0.309 C 
ATOM     14  C   UNL     1       7.404   6.265  -3.597  0.00  0.00    +0.136 C 
ENDBRANCH  11  13
ENDBRANCH   1  11
TORSDOF 4
ENDMDL
