MODEL 1
REMARK VINA RESULT:      -4.5      0.000      0.000
REMARK  Name = 2244
REMARK  5 active torsions:
REMARK  status: ('A' for Active; 'I' for Inactive)
REMARK    1  A    between atoms: O_1  and  C_5
REMARK    2  A    between atoms: O_1  and  C_12
REMARK    3  A    between atoms: O_2  and  C_11
REMARK    4  A    between atoms: C_6  and  C_11
REMARK    5  A    between atoms: C_12  and  C_13
REMARK                            x       y       z     vdW  Elec       q    Type
REMARK                         _______ _______ _______ _____ _____    ______ ____
ROOT
ATOM      1  C   UNL     1       9.325   5.387  -9.935  0.00  0.00    +0.146 A 
ATOM      2  C   UNL     1       8.582   6.042 -10.075  0.00  0.00    +0.101 A 
ATOM      3  C   UNL     1       9.270   4.721  -9.191  0.00  0.00    +0.047 A 
ATOM      4  C   UNL     1       7.785   6.031  -9.471  0.00  0.00    +0.018 A 
ATOM      5  C   UNL     1       8.473   4.710  -8.587  0.00  0.00    +0.004 A 
ATOM      6  C   UNL     1       7.731   5.365  -8.727  0.00  0.00    +0.001 A 
ENDROOT
BRANCH   2   8
ATOM      7  O   UNL     1       8.284   6.476 -11.725  0.00  0.00    -0.245 OA
ATOM      8  C   UNL     1       8.637   6.708 -10.819  0.00  0.00    +0.340 C 
BRANCH   8   9
ATOM      9  O   UNL     1       9.045   7.607 -10.656  0.00  0.00    -0.477 OA
ATOM     10  H   UNL     1       8.917   7.916 -10.134  0.00  0.00    +0.295 HD
ENDBRANCH   8   9
ENDBRANCH   2   8
BRANCH   1  11
ATOM     11  O   UNL     1      10.122   5.398 -10.539  0.00  0.00    -0.425 OA
BRANCH  11  13
ATOM     12  O   UNL     1      11.623   5.046  -9.750  0.00  0.00    -0.251 OA
ATOM     13  C   UNL     1      10.886   4.776 -10.370  0.00  0.00    +0.309 C 
ATOM     14  C   UNL     1      10.913   3.883 -10.820  0.00  0.00    +0.136 C 
ENDBRANCH  11  13
ENDBRANCH   1  11
TORSDOF 4
ENDMDL
MODEL 2
REMARK VINA RESULT:      -4.0      1.433      2.773
REMARK  Name = 2244
REMARK  5 active torsions:
REMARK  status: ('A' for Active; 'I' for Inactive)
REMARK    1  A    between atoms: O_1  and  C_5
REMARK    2  A    between atoms: O_1  and  C_12
REMARK    3  A    between atoms: O_2  and  C_11
REMARK    4  A    between atoms: C_6  and  C_11
REMARK    5  A    between atoms: C_12  and  C_13
REMARK                            x       y       z     vdW  Elec       q    Type
REMARK                         _______ _______ _______ _____ _____    ______ ____
ROOT
ATOM      1  C   UNL     1       8.354   5.726  -9.490  0.00  0.00    +0.146 A 
ATOM      2  C   UNL     1       8.884   5.983 -10.298  0.00  0.00    +0.101 A 
ATOM      3  C   UNL     1       8.624   4.932  -8.946  0.00  0.00    +0.047 A 
ATOM      4  C   UNL     1       9.685   5.446 -10.562  0.00  0.00    +0.018 A 
ATOM      5  C   UNL     1       9.425   4.395  -9.210  0.00  0.00    +0.004 A 
ATOM      6  C   UNL     1       9.956   4.652 -10.018  0.00  0.00    +0.001 A 
ENDROOT
BRANCH   2   8
ATOM      7  O   UNL     1       7.932   6.678 -11.567  0.00  0.00    -0.245 OA
ATOM      8  C   UNL     1       8.613   6.778 -10.842  0.00  0.00    +0.340 C 
BRANCH   8   9
ATOM      9  O   UNL     1       9.023   7.671 -10.660  0.00  0.00    -0.477 OA
ATOM     10  H   UNL     1       9.638   7.743 -10.693  0.00  0.00    +0.295 HD
ENDBRANCH   8   9
ENDBRANCH   2   8
BRANCH   1  11
ATOM     11  O   UNL     1       7.553   6.264  -9.226  0.00  0.00    -0.425 OA
BRANCH  11  13
ATOM     12  O   UNL     1       7.422   6.381  -7.503  0.00  0.00    -0.251 OA
ATOM     13  C   UNL     1       7.067   6.053  -8.378  0.00  0.00    +0.309 C 
ATOM     14  C   UNL     1       6.225   5.514  -8.405  0.00  0.00    +0.136 C 
ENDBRANCH  11  13
ENDBRANCH   1  11
TORSDOF 4
ENDMDL
MODEL 3
REMARK VINA RESULT:      -3.9      3.622      4.682
REMARK  Name = 2244
REMARK  5 active torsions:
REMARK  status: ('A' for Active; 'I' for Inactive)
REMARK    1  A    between atoms: O_1  and  C_5
REMARK    2  A    between atoms: O_1  and  C_12
REMARK    3  A    between atoms: O_2  and  C_11
REMARK    4  A    between atoms: C_6  and  C_11
REMARK    5  A    between atoms: C_12  and  C_13
REMARK                            x       y       z     vdW  Elec       q    Type
REMARK                         _______ _______ _______ _____ _____    ______ ____
ROOT
ATOM      1  C   UNL     1       6.750   6.404  -6.952  0.00  0.00    +0.146 A 
ATOM      2  C   UNL     1       6.683   6.713  -6.003  0.00  0.00    +0.101 A 
ATOM      3  C   UNL     1       5.981   6.537  -7.577  0.00  0.00    +0.047 A 
ATOM      4  C   UNL     1       5.847   7.155  -5.680  0.00  0.00    +0.018 A 
ATOM      5  C   UNL     1       5.145   6.980  -7.253  0.00  0.00    +0.004 A 
ATOM      6  C   UNL     1       5.077   7.289  -6.305  0.00  0.00    +0.001 A 
ENDROOT
BRANCH   2   8
ATOM      7  O   UNL     1       7.539   5.725  -4.867  0.00  0.00    -0.245 OA
ATOM      8  C   UNL     1       7.452   6.580  -5.379  0.00  0.00    +0.340 C 
BRANCH   8   9
ATOM      9  O   UNL     1       8.135   7.301  -5.265  0.00  0.00    -0.477 OA
ATOM     10  H   UNL     1       8.007   7.880  -5.447  0.00  0.00    +0.295 HD
ENDBRANCH   8   9
ENDBRANCH   2   8
BRANCH   1  11
ATOM     11  O   UNL     1       7.586   5.962  -7.276  0.00  0.00    -0.425 OA
BRANCH  11  13
ATOM     12  O   UNL     1       7.861   6.222  -8.966  0.00  0.00    -0.251 OA
ATOM     13  C   UNL     1       7.635   5.608  -8.210  0.00  0.00    +0.309 C 
ATOM     14  C   UNL     1       7.459   4.640  -8.387  0.00  0.00    +0.136 C 
ENDBRANCH  11  13
ENDBRANCH   1  11
TORSDOF 4
ENDMDL
MODEL 4
REMARK VINA RESULT:      -3.8      6.343      7.493
REMARK  Name = 2244
REMARK  5 active torsions:
REMARK  status: ('A' for Active; 'I' for Inactive)
REMARK    1  A    between atoms: O_1  and  C_5
REMARK    2  A    between atoms: O_1  and  C_12
REMARK    3  A    between atoms: O_2  and  C_11
REMARK    4  A    between atoms: C_6  and  C_11
REMARK    5  A    between atoms: C_12  and  C_13
REMARK                            x       y       z     vdW  Elec       q    Type
REMARK                         _______ _______ _______ _____ _____    ______ ____
ROOT
ATOM      1  C   UNL     1       6.965   6.648  -3.329  0.00  0.00    +0.146 A 
ATOM      2  C   UNL     1       7.392   6.435  -4.208  0.00  0.00    +0.101 A 
ATOM      3  C   UNL     1       6.043   6.317  -3.127  0.00  0.00    +0.047 A 
ATOM      4  C   UNL     1       6.897   5.889  -4.884  0.00  0.00    +0.018 A 
ATOM      5  C   UNL     1       5.549   5.772  -3.803  0.00  0.00    +0.004 A 
ATOM      6  C   UNL     1       5.975   5.558  -4.682  0.00  0.00    +0.001 A 
ENDROOT
BRANCH   2   8
ATOM      7  O   UNL     1       9.110   6.281  -4.048  0.00  0.00    -0.245 OA
ATOM      8  C   UNL     1       8.313   6.766  -4.410  0.00  0.00    +0.340 C 
BRANCH   8   9
ATOM      9  O   UNL     1       8.439   7.582  -4.973  0.00  0.00    -0.477 OA
ATOM     10  H   UNL     1       8.755   8.067  -4.751  0.00  0.00    +0.295 HD
ENDBRANCH   8   9
ENDBRANCH   2   8
BRANCH   1  11
ATOM     11  O   UNL     1       7.460   7.193  -2.652  0.00  0.00    -0.425 OA
BRANCH  11  13
ATOM     12  O   UNL     1       7.406   6.348  -1.142  0.00  0.00    -0.251 OA
ATOM     13  C   UNL     1       7.193   7.157  -1.689  0.00  0.00    +0.309 C 
ATOM     14  C   UNL     1       6.714   7.930  -1.273  0.00  0.00    +0.136 C 
ENDBRANCH  11  13
ENDBRANCH   1  11
TORSDOF 4
ENDMDL
MODEL 5
REMARK VINA RESULT:      -3.8      1.601      2.412
REMARK  Name = 2244
REMARK  5 active torsions:
REMARK  status: ('A' for Active; 'I' for Inactive)
REMARK    1  A    between atoms: O_1  and  C_5
REMARK    2  A    between atoms: O_1  and  C_12
REMARK    3  A    between atoms: O_2  and  C_11
REMARK    4  A    between atoms: C_6  and  C_11
REMARK    5  A    between atoms: C_12  and  C_13
REMARK                            x       y       z     vdW  Elec       q    Type
REMARK                         _______ _______ _______ _____ _____    ______ ____
ROOT
ATOM      1  C   UNL     1       9.408   4.865  -9.393  0.00  0.00    +0.146 A 
ATOM      2  C   UNL     1       8.657   4.866  -8.733  0.00  0.00    +0.101 A 
ATOM      3  C   UNL     1       9.346   5.423 -10.221  0.00  0.00    +0.047 A 
ATOM      4  C   UNL     1       7.844   5.424  -8.901  0.00  0.00    +0.018 A 
ATOM      5  C   UNL     1       8.534   5.981 -10.389  0.00  0.00    +0.004 A 
ATOM      6  C   UNL     1       7.783   5.981  -9.729  0.00  0.00    +0.001 A 
ENDROOT
BRANCH   2   8
ATOM      7  O   UNL     1       8.399   3.361  -7.915  0.00  0.00    -0.245 OA
ATOM      8  C   UNL     1       8.718   4.309  -7.905  0.00  0.00    +0.340 C 
BRANCH   8   9
ATOM      9  O   UNL     1       9.098   4.699  -7.067  0.00  0.00    -0.477 OA
ATOM     10  H   UNL     1       9.539   4.394  -6.755  0.00  0.00    +0.295 HD
ENDBRANCH   8   9
ENDBRANCH   2   8
BRANCH   1  11
ATOM     11  O   UNL     1      10.220   4.307  -9.225  0.00  0.00    -0.425 OA
BRANCH  11  13
ATOM     12  O   UNL     1      11.655   5.090  -9.799  0.00  0.00    -0.251 OA
ATOM     13  C   UNL     1      10.992   4.344  -9.860  0.00  0.00    +0.309 C 
ATOM     14  C   UNL     1      11.101   3.634 -10.555  0.00  0.00    +0.136 C 
ENDBRANCH  11  13
ENDBRANCH   1  11
TORSDOF 4
ENDMDL
MODEL 6
REMARK VINA RESULT:      -3.8      4.441      5.500
REMARK  Name = 2244
REMARK  5 active torsions:
REMARK  status: ('A' for Active; 'I' for Inactive)
REMARK    1  A    between atoms: O_1  and  C_5
REMARK    2  A    between atoms: O_1  and  C_12
REMARK    3  A    between atoms: O_2  and  C_11
REMARK    4  A    between atoms: C_6  and  C_11
REMARK    5  A    between atoms: C_12  and  C_13
REMARK                            x       y       z     vdW  Elec       q    Type
REMARK                         _______ _______ _______ _____ _____    ______ ____
ROOT
ATOM      1  C   UNL     1       7.151   5.789  -5.376  0.00  0.00    +0.146 A 
ATOM      2  C   UNL     1       7.343   6.374  -4.588  0.00  0.00    +0.101 A 
ATOM      3  C   UNL     1       6.237   5.404  -5.503  0.00  0.00    +0.047 A 
ATOM      4  C   UNL     1       6.620   6.573  -3.926  0.00  0.00    +0.018 A 
ATOM      5  C   UNL     1       5.514   5.603  -4.840  0.00  0.00    +0.004 A 
ATOM      6  C   UNL     1       5.706   6.188  -4.052  0.00  0.00    +0.001 A 
ENDROOT
BRANCH   2   8
ATOM      7  O   UNL     1       8.936   6.266  -3.918  0.00  0.00    -0.245 OA
ATOM      8  C   UNL     1       8.257   6.759  -4.462  0.00  0.00    +0.340 C 
BRANCH   8   9
ATOM      9  O   UNL     1       8.491   7.637  -4.880  0.00  0.00    -0.477 OA
ATOM     10  H   UNL     1       8.500   7.694  -5.497  0.00  0.00    +0.295 HD
ENDBRANCH   8   9
ENDBRANCH   2   8
BRANCH   1  11
ATOM     11  O   UNL     1       7.873   5.590  -6.038  0.00  0.00    -0.425 OA
BRANCH  11  13
ATOM     12  O   UNL     1       7.391   6.273  -7.555  0.00  0.00    -0.251 OA
ATOM     13  C   UNL     1       7.648   5.478  -7.006  0.00  0.00    +0.309 C 
ATOM     14  C   UNL     1       7.679   4.570  -7.425  0.00  0.00    +0.136 C 
ENDBRANCH  11  13
ENDBRANCH   1  11
TORSDOF 4
ENDMDL
MODEL 7
REMARK VINA RESULT:      -3.5      1.923      2.991
REMARK  Name = 2244
REMARK  5 active torsions:
REMARK  status: ('A' for Active; 'I' for Inactive)
REMARK    1  A    between atoms: O_1  and  C_5
REMARK    2  A    between atoms: O_1  and  C_12
REMARK    3  A    between atoms: O_2  and  C_11
REMARK    4  A    between atoms: C_6  and  C_11
REMARK    5  A    between atoms: C_12  and  C_13
REMARK                            x       y       z     vdW  Elec       q    Type
REMARK                         _______ _______ _______ _____ _____    ______ ____
ROOT
ATOM      1  C   UNL     1       8.909   5.143  -9.138  0.00  0.00    +0.146 A 
ATOM      2  C   UNL     1       8.737   4.707  -8.255  0.00  0.00    +0.101 A 
ATOM      3  C   UNL     1       9.689   4.856  -9.693  0.00  0.00    +0.047 A 
ATOM      4  C   UNL     1       9.344   3.983  -7.927  0.00  0.00    +0.018 A 
ATOM      5  C   UNL     1      10.297   4.132  -9.366  0.00  0.00    +0.004 A 
ATOM      6  C   UNL     1      10.124   3.696  -8.483  0.00  0.00    +0.001 A 
ENDROOT
BRANCH   2   8
ATOM      7  O   UNL     1       7.069   4.550  -7.815  0.00  0.00    -0.245 OA
ATOM      8  C   UNL     1       7.957   4.995  -7.699  0.00  0.00    +0.340 C 
BRANCH   8   9
ATOM      9  O   UNL     1       8.065   5.727  -7.027  0.00  0.00    -0.477 OA
ATOM     10  H   UNL     1       8.180   6.307  -7.215  0.00  0.00    +0.295 HD
ENDBRANCH   8   9
ENDBRANCH   2   8
BRANCH   1  11
ATOM     11  O   UNL     1       8.302   5.867  -9.465  0.00  0.00    -0.425 OA
BRANCH  11  13
ATOM     12  O   UNL     1       9.123   7.012 -10.472  0.00  0.00    -0.251 OA
ATOM     13  C   UNL     1       8.453   6.278 -10.364  0.00  0.00    +0.309 C 
ATOM     14  C   UNL     1       7.933   5.955 -11.155  0.00  0.00    +0.136 C 
ENDBRANCH  11  13
ENDBRANCH   1  11
TORSDOF 4
ENDMDL
MODEL 8
REMARK VINA RESULT:      -3.5      5.417      6.839
REMARK  Name = 2244
REMARK  5 active torsions:
REMARK  status: ('A' for Active; 'I' for Inactive)
REMARK    1  A    between atoms: O_1  and  C_5
REMARK    2  A    between atoms: O_1  and  C_12
REMARK    3  A    between atoms: O_2  and  C_11
REMARK    4  A    between atoms: C_6  and  C_11
REMARK    5  A    between atoms: C_12  and  C_13
REMARK                            x       y       z     vdW  Elec       q    Type
REMARK                         _______ _______ _______ _____ _____    ______ ____
ROOT
ATOM      1  C   UNL     1       6.489   6.443  -4.579  0.00  0.00    +0.146 A 
ATOM      2  C   UNL     1       7.358   6.436  -5.074  0.00  0.00    +0.101 A 
ATOM      3  C   UNL     1       5.665   6.077  -5.011  0.00  0.00    +0.047 A 
ATOM      4  C   UNL     1       7.402   6.062  -6.001  0.00  0.00    +0.018 A 
ATOM      5  C   UNL     1       5.709   5.704  -5.937  0.00  0.00    +0.004 A 
ATOM      6  C   UNL     1       6.578   5.696  -6.432  0.00  0.00    +0.001 A 
ENDROOT
BRANCH   2   8
ATOM      7  O   UNL     1       8.654   6.274  -3.936  0.00  0.00    -0.245 OA
ATOM      8  C   UNL     1       8.183   6.802  -4.643  0.00  0.00    +0.340 C 
BRANCH   8   9
ATOM      9  O   UNL     1       8.536   7.696  -4.918  0.00  0.00    -0.477 OA
ATOM     10  H   UNL     1       9.079   7.736  -5.215  0.00  0.00    +0.295 HD
ENDBRANCH   8   9
ENDBRANCH   2   8
BRANCH   1  11
ATOM     11  O   UNL     1       6.445   6.817  -3.653  0.00  0.00    -0.425 OA
BRANCH  11  13
ATOM     12  O   UNL     1       5.119   7.931  -3.618  0.00  0.00    -0.251 OA
ATOM     13  C   UNL     1       5.567   7.106  -3.272  0.00  0.00    +0.309 C 
ATOM     14  C   UNL     1       5.137   6.571  -2.545  0.00  0.00    +0.136 C 
ENDBRANCH  11  13
ENDBRANCH   1  11
TORSDOF 4
ENDMDL
MODEL 9
REMARK VINA RESULT:      -3.2      6.832      7.934
REMARK  Name = 2244
REMARK  5 active torsions:
REMARK  status: ('A' for Active; 'I' for Inactive)
REMARK    1  A    between atoms: O_1  and  C_5
REMARK    2  A    between atoms: O_1  and  C_12
REMARK    3  A    between atoms: O_2  and  C_11
REMARK    4  A    between atoms: C_6  and  C_11
REMARK    5  A    between atoms: C_12  and  C_13
REMARK                            x       y       z     vdW  Elec       q    Type
REMARK                         _______ _______ _______ _____ _____    ______ ____
ROOT
ATOM      1  C   UNL     1       6.999   5.957  -2.841  0.00  0.00    +0.146 A 
ATOM      2  C   UNL     1       6.640   5.179  -2.326  0.00  0.00    +0.101 A 
ATOM      3  C   UNL     1       6.600   6.866  -2.716  0.00  0.00    +0.047 A 
ATOM      4  C   UNL     1       5.882   5.309  -1.687  0.00  0.00    +0.018 A 
ATOM      5  C   UNL     1       5.842   6.996  -2.077  0.00  0.00    +0.004 A 
ATOM      6  C   UNL     1       5.483   6.217  -1.563  0.00  0.00    +0.001 A 
ENDROOT
BRANCH   2   8
ATOM      7  O   UNL     1       7.813   3.983  -1.886  0.00  0.00    -0.245 OA
ATOM      8  C   UNL     1       7.039   4.270  -2.451  0.00  0.00    +0.340 C 
BRANCH   8   9
ATOM      9  O   UNL     1       6.664   3.649  -3.139  0.00  0.00    -0.477 OA
ATOM     10  H   UNL     1       6.080   3.719  -3.334  0.00  0.00    +0.295 HD
ENDBRANCH   8   9
ENDBRANCH   2   8
BRANCH   1  11
ATOM     11  O   UNL     1       7.757   5.828  -3.480  0.00  0.00    -0.425 OA
BRANCH  11  13
ATOM     12  O   UNL     1       8.679   7.273  -3.730  0.00  0.00    -0.251 OA
ATOM     13  C   UNL     1       8.045   6.579  -4.073  0.00  0.00    +0.309 C 
ATOM     14  C   UNL     1       7.700   6.637  -5.010  0.00  0.00    +0.136 C 
ENDBRANCH  11  13
ENDBRANCH   1  11
TORSDOF 4
ENDMDL
