REMARK  Name = 5288826
REMARK  3 active torsions:
REMARK  status: ('A' for Active; 'I' for Inactive)
REMARK    1  A    between atoms: O_2  and  C_14
REMARK    2  A    between atoms: O_3  and  C_20
REMARK    3  A    between atoms: N_4  and  C_18
REMARK                            x       y       z     vdW  Elec       q    Type
REMARK                         _______ _______ _______ _____ _____    ______ ____
ROOT
ATOM      1  O   UNL     1       2.231   0.053   0.000  0.00  0.00    -0.481 OA
ATOM      2  N   UNL     1       6.161  -0.951   0.000  0.00  0.00    -0.301 NA
ATOM      3  C   UNL     1       3.690  -0.475   0.000  0.00  0.00    +0.048 C 
ATOM      4  C   UNL     1       4.513  -0.951   0.000  0.00  0.00    +0.043 C 
ATOM      5  C   UNL     1       5.337  -0.475   0.000  0.00  0.00    +0.068 C 
ATOM      6  C   UNL     1       2.866  -0.951   0.000  0.00  0.00    +0.217 C 
ATOM      7  C   UNL     1       4.239   0.222   0.000  0.00  0.00    +0.031 C 
ATOM      8  C   UNL     1       3.690   0.475   0.000  0.00  0.00    +0.012 A 
ATOM      9  C   UNL     1       5.337   0.475   0.000  0.00  0.00    +0.055 C 
ATOM     10  C   UNL     1       5.592   0.222   0.000  0.00  0.00    +0.085 C 
ATOM     11  C   UNL     1       4.513   0.951   0.000  0.00  0.00    -0.038 A 
ATOM     12  C   UNL     1       2.866  -1.902   0.000  0.00  0.00    +0.178 C 
ATOM     13  C   UNL     1       4.513  -1.902   0.000  0.00  0.00    -0.023 C 
ATOM     14  C   UNL     1       2.866   0.951   0.000  0.00  0.00    +0.166 A 
ATOM     15  C   UNL     1       3.690  -2.378   0.000  0.00  0.00    +0.004 C 
ATOM     16  C   UNL     1       6.842  -1.683   0.000  0.00  0.00    +0.105 C 
ATOM     17  C   UNL     1       4.513   1.902   0.000  0.00  0.00    +0.008 A 
ATOM     18  C   UNL     1       2.866   1.902   0.000  0.00  0.00    +0.159 A 
ATOM     19  C   UNL     1       3.690   2.378   0.000  0.00  0.00    +0.049 A 
ENDROOT
BRANCH  12  20
ATOM     20  O   UNL     1       2.000  -2.402   0.000  0.00  0.00    -0.384 OA
ATOM     21  H   UNL     1       2.000  -3.022   0.000  0.00  0.00    +0.210 HD
ENDBRANCH  12  20
BRANCH  18  22
ATOM     22  O   UNL     1       2.000   2.402   0.000  0.00  0.00    -0.503 OA
ATOM     23  H   UNL     1       2.000   3.022   0.000  0.00  0.00    +0.292 HD
ENDBRANCH  18  22
TORSDOF 2
