MODEL 1
REMARK VINA RESULT:      -4.1      0.000      0.000
REMARK  Name = 2244
REMARK  5 active torsions:
REMARK  status: ('A' for Active; 'I' for Inactive)
REMARK    1  A    between atoms: O_1  and  C_5
REMARK    2  A    between atoms: O_1  and  C_12
REMARK    3  A    between atoms: O_2  and  C_11
REMARK    4  A    between atoms: C_6  and  C_11
REMARK    5  A    between atoms: C_12  and  C_13
REMARK                            x       y       z     vdW  Elec       q    Type
REMARK                         _______ _______ _______ _____ _____    ______ ____
ROOT
ATOM      1  C   UNL     1       7.070   6.746  -2.931  0.00  0.00    +0.146 A 
ATOM      2  C   UNL     1       7.408   6.432  -3.818  0.00  0.00    +0.101 A 
ATOM      3  C   UNL     1       6.209   6.388  -2.569  0.00  0.00    +0.047 A 
ATOM      4  C   UNL     1       6.887   5.759  -4.342  0.00  0.00    +0.018 A 
ATOM      5  C   UNL     1       5.688   5.715  -3.093  0.00  0.00    +0.004 A 
ATOM      6  C   UNL     1       6.027   5.401  -3.980  0.00  0.00    +0.001 A 
ENDROOT
BRANCH   2   8
ATOM      7  O   UNL     1       9.139   6.400  -3.881  0.00  0.00    -0.245 OA
ATOM      8  C   UNL     1       8.269   6.791  -4.180  0.00  0.00    +0.340 C 
BRANCH   8   9
ATOM      9  O   UNL     1       8.258   7.541  -4.842  0.00  0.00    -0.477 OA
ATOM     10  H   UNL     1       8.166   7.422  -5.443  0.00  0.00    +0.295 HD
ENDBRANCH   8   9
ENDBRANCH   2   8
BRANCH   1  11
ATOM     11  O   UNL     1       7.591   7.419  -2.406  0.00  0.00    -0.425 OA
BRANCH  11  13
ATOM     12  O   UNL     1       6.489   8.575  -1.736  0.00  0.00    -0.251 OA
ATOM     13  C   UNL     1       7.178   7.862  -1.610  0.00  0.00    +0.309 C 
ATOM     14  C   UNL     1       7.454   7.590  -0.688  0.00  0.00    +0.136 C 
ENDBRANCH  11  13
ENDBRANCH   1  11
TORSDOF 4
ENDMDL
MODEL 2
REMARK VINA RESULT:      -3.8      1.032      2.916
REMARK  Name = 2244
REMARK  5 active torsions:
REMARK  status: ('A' for Active; 'I' for Inactive)
REMARK    1  A    between atoms: O_1  and  C_5
REMARK    2  A    between atoms: O_1  and  C_12
REMARK    3  A    between atoms: O_2  and  C_11
REMARK    4  A    between atoms: C_6  and  C_11
REMARK    5  A    between atoms: C_12  and  C_13
REMARK                            x       y       z     vdW  Elec       q    Type
REMARK                         _______ _______ _______ _____ _____    ______ ____
ROOT
ATOM      1  C   UNL     1       6.998   6.502  -2.672  0.00  0.00    +0.146 A 
ATOM      2  C   UNL     1       6.870   6.858  -1.746  0.00  0.00    +0.101 A 
ATOM      3  C   UNL     1       6.730   5.563  -2.888  0.00  0.00    +0.047 A 
ATOM      4  C   UNL     1       6.475   6.274  -1.037  0.00  0.00    +0.018 A 
ATOM      5  C   UNL     1       6.335   4.980  -2.179  0.00  0.00    +0.004 A 
ATOM      6  C   UNL     1       6.208   5.335  -1.253  0.00  0.00    +0.001 A 
ENDROOT
BRANCH   2   8
ATOM      7  O   UNL     1       6.469   8.537  -1.603  0.00  0.00    -0.245 OA
ATOM      8  C   UNL     1       7.138   7.797  -1.530  0.00  0.00    +0.340 C 
BRANCH   8   9
ATOM      9  O   UNL     1       8.074   7.996  -1.241  0.00  0.00    -0.477 OA
ATOM     10  H   UNL     1       8.179   8.410  -0.791  0.00  0.00    +0.295 HD
ENDBRANCH   8   9
ENDBRANCH   2   8
BRANCH   1  11
ATOM     11  O   UNL     1       7.393   7.085  -3.382  0.00  0.00    -0.425 OA
BRANCH  11  13
ATOM     12  O   UNL     1       8.871   6.347  -3.902  0.00  0.00    -0.251 OA
ATOM     13  C   UNL     1       7.951   6.682  -4.107  0.00  0.00    +0.309 C 
ATOM     14  C   UNL     1       7.590   6.614  -5.037  0.00  0.00    +0.136 C 
ENDBRANCH  11  13
ENDBRANCH   1  11
TORSDOF 4
ENDMDL
MODEL 3
REMARK VINA RESULT:      -3.6      1.631      2.124
REMARK  Name = 2244
REMARK  5 active torsions:
REMARK  status: ('A' for Active; 'I' for Inactive)
REMARK    1  A    between atoms: O_1  and  C_5
REMARK    2  A    between atoms: O_1  and  C_12
REMARK    3  A    between atoms: O_2  and  C_11
REMARK    4  A    between atoms: C_6  and  C_11
REMARK    5  A    between atoms: C_12  and  C_13
REMARK                            x       y       z     vdW  Elec       q    Type
REMARK                         _______ _______ _______ _____ _____    ______ ____
ROOT
ATOM      1  C   UNL     1       7.109   6.026  -3.712  0.00  0.00    +0.146 A 
ATOM      2  C   UNL     1       7.719   6.514  -4.336  0.00  0.00    +0.101 A 
ATOM      3  C   UNL     1       6.224   5.693  -4.037  0.00  0.00    +0.047 A 
ATOM      4  C   UNL     1       7.443   6.670  -5.285  0.00  0.00    +0.018 A 
ATOM      5  C   UNL     1       5.948   5.849  -4.985  0.00  0.00    +0.004 A 
ATOM      6  C   UNL     1       6.558   6.337  -5.609  0.00  0.00    +0.001 A 
ENDROOT
BRANCH   2   8
ATOM      7  O   UNL     1       8.660   7.706  -3.503  0.00  0.00    -0.245 OA
ATOM      8  C   UNL     1       8.605   6.847  -4.012  0.00  0.00    +0.340 C 
BRANCH   8   9
ATOM      9  O   UNL     1       9.435   6.320  -4.196  0.00  0.00    -0.477 OA
ATOM     10  H   UNL     1       9.393   5.742  -4.416  0.00  0.00    +0.295 HD
ENDBRANCH   8   9
ENDBRANCH   2   8
BRANCH   1  11
ATOM     11  O   UNL     1       7.385   5.870  -2.764  0.00  0.00    -0.425 OA
BRANCH  11  13
ATOM     12  O   UNL     1       7.434   4.173  -2.419  0.00  0.00    -0.251 OA
ATOM     13  C   UNL     1       7.035   5.077  -2.265  0.00  0.00    +0.309 C 
ATOM     14  C   UNL     1       6.285   5.188  -1.612  0.00  0.00    +0.136 C 
ENDBRANCH  11  13
ENDBRANCH   1  11
TORSDOF 4
ENDMDL
MODEL 4
REMARK VINA RESULT:      -3.5      2.403      3.439
REMARK  Name = 2244
REMARK  5 active torsions:
REMARK  status: ('A' for Active; 'I' for Inactive)
REMARK    1  A    between atoms: O_1  and  C_5
REMARK    2  A    between atoms: O_1  and  C_12
REMARK    3  A    between atoms: O_2  and  C_11
REMARK    4  A    between atoms: C_6  and  C_11
REMARK    5  A    between atoms: C_12  and  C_13
REMARK                            x       y       z     vdW  Elec       q    Type
REMARK                         _______ _______ _______ _____ _____    ______ ____
ROOT
ATOM      1  C   UNL     1       7.150   7.351   0.331  0.00  0.00    +0.146 A 
ATOM      2  C   UNL     1       7.029   7.234  -0.654  0.00  0.00    +0.101 A 
ATOM      3  C   UNL     1       7.010   6.575   0.947  0.00  0.00    +0.047 A 
ATOM      4  C   UNL     1       6.768   6.343  -1.024  0.00  0.00    +0.018 A 
ATOM      5  C   UNL     1       6.749   5.684   0.578  0.00  0.00    +0.004 A 
ATOM      6  C   UNL     1       6.628   5.567  -0.408  0.00  0.00    +0.001 A 
ENDROOT
BRANCH   2   8
ATOM      7  O   UNL     1       8.073   8.182  -1.659  0.00  0.00    -0.245 OA
ATOM      8  C   UNL     1       7.168   8.010  -1.270  0.00  0.00    +0.340 C 
BRANCH   8   9
ATOM      9  O   UNL     1       6.403   8.612  -1.497  0.00  0.00    -0.477 OA
ATOM     10  H   UNL     1       6.104   8.544  -2.035  0.00  0.00    +0.295 HD
ENDBRANCH   8   9
ENDBRANCH   2   8
BRANCH   1  11
ATOM     11  O   UNL     1       7.411   8.242   0.701  0.00  0.00    -0.425 OA
BRANCH  11  13
ATOM     12  O   UNL     1       6.093   8.744   1.707  0.00  0.00    -0.251 OA
ATOM     13  C   UNL     1       7.064   8.535   1.592  0.00  0.00    +0.309 C 
ATOM     14  C   UNL     1       7.689   8.618   2.369  0.00  0.00    +0.136 C 
ENDBRANCH  11  13
ENDBRANCH   1  11
TORSDOF 4
ENDMDL
MODEL 5
REMARK VINA RESULT:      -3.5      2.356      3.908
REMARK  Name = 2244
REMARK  5 active torsions:
REMARK  status: ('A' for Active; 'I' for Inactive)
REMARK    1  A    between atoms: O_1  and  C_5
REMARK    2  A    between atoms: O_1  and  C_12
REMARK    3  A    between atoms: O_2  and  C_11
REMARK    4  A    between atoms: C_6  and  C_11
REMARK    5  A    between atoms: C_12  and  C_13
REMARK                            x       y       z     vdW  Elec       q    Type
REMARK                         _______ _______ _______ _____ _____    ______ ____
ROOT
ATOM      1  C   UNL     1       6.857   6.712  -0.230  0.00  0.00    +0.146 A 
ATOM      2  C   UNL     1       7.212   7.638  -0.353  0.00  0.00    +0.101 A 
ATOM      3  C   UNL     1       6.868   6.287   0.675  0.00  0.00    +0.047 A 
ATOM      4  C   UNL     1       7.579   8.141   0.430  0.00  0.00    +0.018 A 
ATOM      5  C   UNL     1       7.235   6.790   1.458  0.00  0.00    +0.004 A 
ATOM      6  C   UNL     1       7.590   7.717   1.336  0.00  0.00    +0.001 A 
ENDROOT
BRANCH   2   8
ATOM      7  O   UNL     1       6.410   8.600  -1.549  0.00  0.00    -0.245 OA
ATOM      8  C   UNL     1       7.201   8.062  -1.258  0.00  0.00    +0.340 C 
BRANCH   8   9
ATOM      9  O   UNL     1       7.981   7.949  -1.873  0.00  0.00    -0.477 OA
ATOM     10  H   UNL     1       7.950   8.158  -2.456  0.00  0.00    +0.295 HD
ENDBRANCH   8   9
ENDBRANCH   2   8
BRANCH   1  11
ATOM     11  O   UNL     1       6.491   6.209  -1.013  0.00  0.00    -0.425 OA
BRANCH  11  13
ATOM     12  O   UNL     1       7.458   4.790  -1.238  0.00  0.00    -0.251 OA
ATOM     13  C   UNL     1       6.571   5.213  -1.050  0.00  0.00    +0.309 C 
ATOM     14  C   UNL     1       5.766   4.640  -0.899  0.00  0.00    +0.136 C 
ENDBRANCH  11  13
ENDBRANCH   1  11
TORSDOF 4
ENDMDL
MODEL 6
REMARK VINA RESULT:      -3.4      5.639      6.989
REMARK  Name = 2244
REMARK  5 active torsions:
REMARK  status: ('A' for Active; 'I' for Inactive)
REMARK    1  A    between atoms: O_1  and  C_5
REMARK    2  A    between atoms: O_1  and  C_12
REMARK    3  A    between atoms: O_2  and  C_11
REMARK    4  A    between atoms: C_6  and  C_11
REMARK    5  A    between atoms: C_12  and  C_13
REMARK                            x       y       z     vdW  Elec       q    Type
REMARK                         _______ _______ _______ _____ _____    ______ ____
ROOT
ATOM      1  C   UNL     1       7.797   7.661   3.803  0.00  0.00    +0.146 A 
ATOM      2  C   UNL     1       7.517   7.666   2.843  0.00  0.00    +0.101 A 
ATOM      3  C   UNL     1       7.906   6.793   4.288  0.00  0.00    +0.047 A 
ATOM      4  C   UNL     1       7.347   6.803   2.368  0.00  0.00    +0.018 A 
ATOM      5  C   UNL     1       7.736   5.930   3.812  0.00  0.00    +0.004 A 
ATOM      6  C   UNL     1       7.457   5.935   2.852  0.00  0.00    +0.001 A 
ENDROOT
BRANCH   2   8
ATOM      7  O   UNL     1       6.508   8.969   2.310  0.00  0.00    -0.245 OA
ATOM      8  C   UNL     1       7.407   8.534   2.359  0.00  0.00    +0.340 C 
BRANCH   8   9
ATOM      9  O   UNL     1       8.197   8.966   1.923  0.00  0.00    -0.477 OA
ATOM     10  H   UNL     1       8.150   9.542   1.698  0.00  0.00    +0.295 HD
ENDBRANCH   8   9
ENDBRANCH   2   8
BRANCH   1  11
ATOM     11  O   UNL     1       7.967   8.524   4.279  0.00  0.00    -0.425 OA
BRANCH  11  13
ATOM     12  O   UNL     1       9.269   8.271   5.392  0.00  0.00    -0.251 OA
ATOM     13  C   UNL     1       8.316   8.518   5.216  0.00  0.00    +0.309 C 
ATOM     14  C   UNL     1       7.713   8.760   5.976  0.00  0.00    +0.136 C 
ENDBRANCH  11  13
ENDBRANCH   1  11
TORSDOF 4
ENDMDL
MODEL 7
REMARK VINA RESULT:      -3.3      2.031      2.903
REMARK  Name = 2244
REMARK  5 active torsions:
REMARK  status: ('A' for Active; 'I' for Inactive)
REMARK    1  A    between atoms: O_1  and  C_5
REMARK    2  A    between atoms: O_1  and  C_12
REMARK    3  A    between atoms: O_2  and  C_11
REMARK    4  A    between atoms: C_6  and  C_11
REMARK    5  A    between atoms: C_12  and  C_13
REMARK                            x       y       z     vdW  Elec       q    Type
REMARK                         _______ _______ _______ _____ _____    ______ ____
ROOT
ATOM      1  C   UNL     1       6.121   6.884  -4.511  0.00  0.00    +0.146 A 
ATOM      2  C   UNL     1       7.023   6.492  -4.332  0.00  0.00    +0.101 A 
ATOM      3  C   UNL     1       5.398   6.810  -3.824  0.00  0.00    +0.047 A 
ATOM      4  C   UNL     1       7.203   6.026  -3.466  0.00  0.00    +0.018 A 
ATOM      5  C   UNL     1       5.578   6.344  -2.957  0.00  0.00    +0.004 A 
ATOM      6  C   UNL     1       6.480   5.952  -2.778  0.00  0.00    +0.001 A 
ENDROOT
BRANCH   2   8
ATOM      7  O   UNL     1       7.918   5.808  -5.648  0.00  0.00    -0.245 OA
ATOM      8  C   UNL     1       7.746   6.566  -5.019  0.00  0.00    +0.340 C 
BRANCH   8   9
ATOM      9  O   UNL     1       8.296   7.399  -5.078  0.00  0.00    -0.477 OA
ATOM     10  H   UNL     1       8.913   7.360  -5.122  0.00  0.00    +0.295 HD
ENDBRANCH   8   9
ENDBRANCH   2   8
BRANCH   1  11
ATOM     11  O   UNL     1       5.941   7.350  -5.377  0.00  0.00    -0.425 OA
BRANCH  11  13
ATOM     12  O   UNL     1       4.549   6.633  -6.117  0.00  0.00    -0.251 OA
ATOM     13  C   UNL     1       5.004   7.429  -5.718  0.00  0.00    +0.309 C 
ATOM     14  C   UNL     1       4.522   8.303  -5.658  0.00  0.00    +0.136 C 
ENDBRANCH  11  13
ENDBRANCH   1  11
TORSDOF 4
ENDMDL
MODEL 8
REMARK VINA RESULT:      -3.3      2.597      4.778
REMARK  Name = 2244
REMARK  5 active torsions:
REMARK  status: ('A' for Active; 'I' for Inactive)
REMARK    1  A    between atoms: O_1  and  C_5
REMARK    2  A    between atoms: O_1  and  C_12
REMARK    3  A    between atoms: O_2  and  C_11
REMARK    4  A    between atoms: C_6  and  C_11
REMARK    5  A    between atoms: C_12  and  C_13
REMARK                            x       y       z     vdW  Elec       q    Type
REMARK                         _______ _______ _______ _____ _____    ______ ____
ROOT
ATOM      1  C   UNL     1       7.528   7.260   0.608  0.00  0.00    +0.146 A 
ATOM      2  C   UNL     1       7.543   6.570   1.332  0.00  0.00    +0.101 A 
ATOM      3  C   UNL     1       7.464   8.230   0.844  0.00  0.00    +0.047 A 
ATOM      4  C   UNL     1       7.494   6.849   2.291  0.00  0.00    +0.018 A 
ATOM      5  C   UNL     1       7.415   8.509   1.802  0.00  0.00    +0.004 A 
ATOM      6  C   UNL     1       7.430   7.819   2.526  0.00  0.00    +0.001 A 
ENDROOT
BRANCH   2   8
ATOM      7  O   UNL     1       6.775   5.059   0.973  0.00  0.00    -0.245 OA
ATOM      8  C   UNL     1       7.607   5.600   1.097  0.00  0.00    +0.340 C 
BRANCH   8   9
ATOM      9  O   UNL     1       8.503   5.171   0.985  0.00  0.00    -0.477 OA
ATOM     10  H   UNL     1       9.003   5.520   0.871  0.00  0.00    +0.295 HD
ENDBRANCH   8   9
ENDBRANCH   2   8
BRANCH   1  11
ATOM     11  O   UNL     1       7.577   6.980  -0.350  0.00  0.00    -0.425 OA
BRANCH  11  13
ATOM     12  O   UNL     1       8.318   8.164  -1.375  0.00  0.00    -0.251 OA
ATOM     13  C   UNL     1       7.505   7.665  -1.075  0.00  0.00    +0.309 C 
ATOM     14  C   UNL     1       6.619   7.851  -1.501  0.00  0.00    +0.136 C 
ENDBRANCH  11  13
ENDBRANCH   1  11
TORSDOF 4
ENDMDL
MODEL 9
REMARK VINA RESULT:      -3.3      6.744      8.249
REMARK  Name = 2244
REMARK  5 active torsions:
REMARK  status: ('A' for Active; 'I' for Inactive)
REMARK    1  A    between atoms: O_1  and  C_5
REMARK    2  A    between atoms: O_1  and  C_12
REMARK    3  A    between atoms: O_2  and  C_11
REMARK    4  A    between atoms: C_6  and  C_11
REMARK    5  A    between atoms: C_12  and  C_13
REMARK                            x       y       z     vdW  Elec       q    Type
REMARK                         _______ _______ _______ _____ _____    ______ ____
ROOT
ATOM      1  C   UNL     1       7.994   7.625   4.588  0.00  0.00    +0.146 A 
ATOM      2  C   UNL     1       8.594   7.397   5.355  0.00  0.00    +0.101 A 
ATOM      3  C   UNL     1       7.541   6.897   4.073  0.00  0.00    +0.047 A 
ATOM      4  C   UNL     1       8.741   6.440   5.606  0.00  0.00    +0.018 A 
ATOM      5  C   UNL     1       7.688   5.941   4.325  0.00  0.00    +0.004 A 
ATOM      6  C   UNL     1       8.288   5.712   5.092  0.00  0.00    +0.001 A 
ENDROOT
BRANCH   2   8
ATOM      7  O   UNL     1      10.030   8.273   5.766  0.00  0.00    -0.245 OA
ATOM      8  C   UNL     1       9.047   8.125   5.869  0.00  0.00    +0.340 C 
BRANCH   8   9
ATOM      9  O   UNL     1       8.516   8.704   6.488  0.00  0.00    -0.477 OA
ATOM     10  H   UNL     1       8.539   9.321   6.431  0.00  0.00    +0.295 HD
ENDBRANCH   8   9
ENDBRANCH   2   8
BRANCH   1  11
ATOM     11  O   UNL     1       7.846   8.582   4.336  0.00  0.00    -0.425 OA
BRANCH  11  13
ATOM     12  O   UNL     1       8.173   8.889   2.663  0.00  0.00    -0.251 OA
ATOM     13  C   UNL     1       7.522   8.813   3.419  0.00  0.00    +0.309 C 
ATOM     14  C   UNL     1       6.548   8.968   3.257  0.00  0.00    +0.136 C 
ENDBRANCH  11  13
ENDBRANCH   1  11
TORSDOF 4
ENDMDL
