MODEL 1
REMARK VINA RESULT:      -4.5      0.000      0.000
REMARK  Name = 2244
REMARK  5 active torsions:
REMARK  status: ('A' for Active; 'I' for Inactive)
REMARK    1  A    between atoms: O_1  and  C_5
REMARK    2  A    between atoms: O_1  and  C_12
REMARK    3  A    between atoms: O_2  and  C_11
REMARK    4  A    between atoms: C_6  and  C_11
REMARK    5  A    between atoms: C_12  and  C_13
REMARK                            x       y       z     vdW  Elec       q    Type
REMARK                         _______ _______ _______ _____ _____    ______ ____
ROOT
ATOM      1  C   UNL     1       9.325   5.388  -9.936  0.00  0.00    +0.146 A 
ATOM      2  C   UNL     1       8.582   6.043 -10.075  0.00  0.00    +0.101 A 
ATOM      3  C   UNL     1       9.271   4.722  -9.192  0.00  0.00    +0.047 A 
ATOM      4  C   UNL     1       7.786   6.032  -9.471  0.00  0.00    +0.018 A 
ATOM      5  C   UNL     1       8.474   4.710  -8.588  0.00  0.00    +0.004 A 
ATOM      6  C   UNL     1       7.732   5.366  -8.727  0.00  0.00    +0.001 A 
ENDROOT
BRANCH   2   8
ATOM      7  O   UNL     1       8.282   6.477 -11.725  0.00  0.00    -0.245 OA
ATOM      8  C   UNL     1       8.636   6.709 -10.819  0.00  0.00    +0.340 C 
BRANCH   8   9
ATOM      9  O   UNL     1       9.044   7.608 -10.657  0.00  0.00    -0.477 OA
ATOM     10  H   UNL     1       8.961   7.892 -10.112  0.00  0.00    +0.295 HD
ENDBRANCH   8   9
ENDBRANCH   2   8
BRANCH   1  11
ATOM     11  O   UNL     1      10.121   5.399 -10.540  0.00  0.00    -0.425 OA
BRANCH  11  13
ATOM     12  O   UNL     1      11.622   5.045  -9.752  0.00  0.00    -0.251 OA
ATOM     13  C   UNL     1      10.885   4.776 -10.372  0.00  0.00    +0.309 C 
ATOM     14  C   UNL     1      10.913   3.885 -10.824  0.00  0.00    +0.136 C 
ENDBRANCH  11  13
ENDBRANCH   1  11
TORSDOF 4
ENDMDL
MODEL 2
REMARK VINA RESULT:      -4.2      0.907      2.748
REMARK  Name = 2244
REMARK  5 active torsions:
REMARK  status: ('A' for Active; 'I' for Inactive)
REMARK    1  A    between atoms: O_1  and  C_5
REMARK    2  A    between atoms: O_1  and  C_12
REMARK    3  A    between atoms: O_2  and  C_11
REMARK    4  A    between atoms: C_6  and  C_11
REMARK    5  A    between atoms: C_12  and  C_13
REMARK                            x       y       z     vdW  Elec       q    Type
REMARK                         _______ _______ _______ _____ _____    ______ ____
ROOT
ATOM      1  C   UNL     1       9.553   4.989  -9.787  0.00  0.00    +0.146 A 
ATOM      2  C   UNL     1      10.342   4.484  -9.437  0.00  0.00    +0.101 A 
ATOM      3  C   UNL     1       8.701   5.012  -9.263  0.00  0.00    +0.047 A 
ATOM      4  C   UNL     1      10.279   4.002  -8.563  0.00  0.00    +0.018 A 
ATOM      5  C   UNL     1       8.639   4.530  -8.389  0.00  0.00    +0.004 A 
ATOM      6  C   UNL     1       9.428   4.025  -8.039  0.00  0.00    +0.001 A 
ENDROOT
BRANCH   2   8
ATOM      7  O   UNL     1      11.329   3.763 -10.664  0.00  0.00    -0.245 OA
ATOM      8  C   UNL     1      11.193   4.461  -9.961  0.00  0.00    +0.340 C 
BRANCH   8   9
ATOM      9  O   UNL     1      11.909   5.136  -9.782  0.00  0.00    -0.477 OA
ATOM     10  H   UNL     1      11.862   5.707 -10.020  0.00  0.00    +0.295 HD
ENDBRANCH   8   9
ENDBRANCH   2   8
BRANCH   1  11
ATOM     11  O   UNL     1       9.615   5.471 -10.661  0.00  0.00    -0.425 OA
BRANCH  11  13
ATOM     12  O   UNL     1       9.110   7.126 -10.589  0.00  0.00    -0.251 OA
ATOM     13  C   UNL     1       8.952   6.184 -10.886  0.00  0.00    +0.309 C 
ATOM     14  C   UNL     1       8.131   5.956 -11.409  0.00  0.00    +0.136 C 
ENDBRANCH  11  13
ENDBRANCH   1  11
TORSDOF 4
ENDMDL
MODEL 3
REMARK VINA RESULT:      -4.0      1.429      2.781
REMARK  Name = 2244
REMARK  5 active torsions:
REMARK  status: ('A' for Active; 'I' for Inactive)
REMARK    1  A    between atoms: O_1  and  C_5
REMARK    2  A    between atoms: O_1  and  C_12
REMARK    3  A    between atoms: O_2  and  C_11
REMARK    4  A    between atoms: C_6  and  C_11
REMARK    5  A    between atoms: C_12  and  C_13
REMARK                            x       y       z     vdW  Elec       q    Type
REMARK                         _______ _______ _______ _____ _____    ______ ____
ROOT
ATOM      1  C   UNL     1       8.344   5.731  -9.480  0.00  0.00    +0.146 A 
ATOM      2  C   UNL     1       8.883   5.977 -10.285  0.00  0.00    +0.101 A 
ATOM      3  C   UNL     1       8.608   4.943  -8.924  0.00  0.00    +0.047 A 
ATOM      4  C   UNL     1       9.686   5.436 -10.534  0.00  0.00    +0.018 A 
ATOM      5  C   UNL     1       9.411   4.401  -9.173  0.00  0.00    +0.004 A 
ATOM      6  C   UNL     1       9.950   4.648  -9.978  0.00  0.00    +0.001 A 
ENDROOT
BRANCH   2   8
ATOM      7  O   UNL     1       7.952   6.656 -11.578  0.00  0.00    -0.245 OA
ATOM      8  C   UNL     1       8.619   6.766 -10.841  0.00  0.00    +0.340 C 
BRANCH   8   9
ATOM      9  O   UNL     1       9.021   7.663 -10.660  0.00  0.00    -0.477 OA
ATOM     10  H   UNL     1       9.635   7.739 -10.693  0.00  0.00    +0.295 HD
ENDBRANCH   8   9
ENDBRANCH   2   8
BRANCH   1  11
ATOM     11  O   UNL     1       7.541   6.272  -9.231  0.00  0.00    -0.425 OA
BRANCH  11  13
ATOM     12  O   UNL     1       7.390   6.402  -7.510  0.00  0.00    -0.251 OA
ATOM     13  C   UNL     1       7.043   6.069  -8.387  0.00  0.00    +0.309 C 
ATOM     14  C   UNL     1       6.199   5.535  -8.420  0.00  0.00    +0.136 C 
ENDBRANCH  11  13
ENDBRANCH   1  11
TORSDOF 4
ENDMDL
MODEL 4
REMARK VINA RESULT:      -3.9      3.626      4.684
REMARK  Name = 2244
REMARK  5 active torsions:
REMARK  status: ('A' for Active; 'I' for Inactive)
REMARK    1  A    between atoms: O_1  and  C_5
REMARK    2  A    between atoms: O_1  and  C_12
REMARK    3  A    between atoms: O_2  and  C_11
REMARK    4  A    between atoms: C_6  and  C_11
REMARK    5  A    between atoms: C_12  and  C_13
REMARK                            x       y       z     vdW  Elec       q    Type
REMARK                         _______ _______ _______ _____ _____    ______ ____
ROOT
ATOM      1  C   UNL     1       6.752   6.399  -6.947  0.00  0.00    +0.146 A 
ATOM      2  C   UNL     1       6.683   6.709  -5.999  0.00  0.00    +0.101 A 
ATOM      3  C   UNL     1       5.984   6.533  -7.574  0.00  0.00    +0.047 A 
ATOM      4  C   UNL     1       5.846   7.152  -5.678  0.00  0.00    +0.018 A 
ATOM      5  C   UNL     1       5.147   6.976  -7.253  0.00  0.00    +0.004 A 
ATOM      6  C   UNL     1       5.078   7.286  -6.305  0.00  0.00    +0.001 A 
ENDROOT
BRANCH   2   8
ATOM      7  O   UNL     1       7.531   5.724  -4.855  0.00  0.00    -0.245 OA
ATOM      8  C   UNL     1       7.450   6.576  -5.372  0.00  0.00    +0.340 C 
BRANCH   8   9
ATOM      9  O   UNL     1       8.137   7.294  -5.263  0.00  0.00    -0.477 OA
ATOM     10  H   UNL     1       7.961   7.876  -5.142  0.00  0.00    +0.295 HD
ENDBRANCH   8   9
ENDBRANCH   2   8
BRANCH   1  11
ATOM     11  O   UNL     1       7.589   5.956  -7.269  0.00  0.00    -0.425 OA
BRANCH  11  13
ATOM     12  O   UNL     1       7.865   6.213  -8.959  0.00  0.00    -0.251 OA
ATOM     13  C   UNL     1       7.639   5.600  -8.202  0.00  0.00    +0.309 C 
ATOM     14  C   UNL     1       7.463   4.632  -8.378  0.00  0.00    +0.136 C 
ENDBRANCH  11  13
ENDBRANCH   1  11
TORSDOF 4
ENDMDL
MODEL 5
REMARK VINA RESULT:      -3.9      1.604      2.417
REMARK  Name = 2244
REMARK  5 active torsions:
REMARK  status: ('A' for Active; 'I' for Inactive)
REMARK    1  A    between atoms: O_1  and  C_5
REMARK    2  A    between atoms: O_1  and  C_12
REMARK    3  A    between atoms: O_2  and  C_11
REMARK    4  A    between atoms: C_6  and  C_11
REMARK    5  A    between atoms: C_12  and  C_13
REMARK                            x       y       z     vdW  Elec       q    Type
REMARK                         _______ _______ _______ _____ _____    ______ ____
ROOT
ATOM      1  C   UNL     1       9.407   4.866  -9.382  0.00  0.00    +0.146 A 
ATOM      2  C   UNL     1       8.655   4.864  -8.724  0.00  0.00    +0.101 A 
ATOM      3  C   UNL     1       9.345   5.422 -10.211  0.00  0.00    +0.047 A 
ATOM      4  C   UNL     1       7.840   5.419  -8.894  0.00  0.00    +0.018 A 
ATOM      5  C   UNL     1       8.531   5.977 -10.381  0.00  0.00    +0.004 A 
ATOM      6  C   UNL     1       7.778   5.975  -9.723  0.00  0.00    +0.001 A 
ENDROOT
BRANCH   2   8
ATOM      7  O   UNL     1       8.397   3.361  -7.904  0.00  0.00    -0.245 OA
ATOM      8  C   UNL     1       8.716   4.308  -7.895  0.00  0.00    +0.340 C 
BRANCH   8   9
ATOM      9  O   UNL     1       9.097   4.700  -7.057  0.00  0.00    -0.477 OA
ATOM     10  H   UNL     1       8.971   5.288  -6.905  0.00  0.00    +0.295 HD
ENDBRANCH   8   9
ENDBRANCH   2   8
BRANCH   1  11
ATOM     11  O   UNL     1      10.222   4.311  -9.212  0.00  0.00    -0.425 OA
BRANCH  11  13
ATOM     12  O   UNL     1      11.652   5.092  -9.800  0.00  0.00    -0.251 OA
ATOM     13  C   UNL     1      10.991   4.343  -9.850  0.00  0.00    +0.309 C 
ATOM     14  C   UNL     1      11.099   3.626 -10.539  0.00  0.00    +0.136 C 
ENDBRANCH  11  13
ENDBRANCH   1  11
TORSDOF 4
ENDMDL
MODEL 6
REMARK VINA RESULT:      -3.8      1.162      3.287
REMARK  Name = 2244
REMARK  5 active torsions:
REMARK  status: ('A' for Active; 'I' for Inactive)
REMARK    1  A    between atoms: O_1  and  C_5
REMARK    2  A    between atoms: O_1  and  C_12
REMARK    3  A    between atoms: O_2  and  C_11
REMARK    4  A    between atoms: C_6  and  C_11
REMARK    5  A    between atoms: C_12  and  C_13
REMARK                            x       y       z     vdW  Elec       q    Type
REMARK                         _______ _______ _______ _____ _____    ______ ____
ROOT
ATOM      1  C   UNL     1       9.651   4.812 -10.618  0.00  0.00    +0.146 A 
ATOM      2  C   UNL     1      10.459   4.278 -10.370  0.00  0.00    +0.101 A 
ATOM      3  C   UNL     1       9.006   4.459 -11.295  0.00  0.00    +0.047 A 
ATOM      4  C   UNL     1      10.622   3.390 -10.799  0.00  0.00    +0.018 A 
ATOM      5  C   UNL     1       9.169   3.571 -11.725  0.00  0.00    +0.004 A 
ATOM      6  C   UNL     1       9.977   3.036 -11.477  0.00  0.00    +0.001 A 
ENDROOT
BRANCH   2   8
ATOM      7  O   UNL     1      11.899   5.161  -9.988  0.00  0.00    -0.245 OA
ATOM      8  C   UNL     1      11.104   4.631  -9.692  0.00  0.00    +0.340 C 
BRANCH   8   9
ATOM      9  O   UNL     1      10.954   4.455  -8.719  0.00  0.00    -0.477 OA
ATOM     10  H   UNL     1      10.962   4.925  -8.315  0.00  0.00    +0.295 HD
ENDBRANCH   8   9
ENDBRANCH   2   8
BRANCH   1  11
ATOM     11  O   UNL     1       9.488   5.701 -10.188  0.00  0.00    -0.425 OA
BRANCH  11  13
ATOM     12  O   UNL     1       9.201   6.936 -11.368  0.00  0.00    -0.251 OA
ATOM     13  C   UNL     1       8.872   6.359 -10.620  0.00  0.00    +0.309 C 
ATOM     14  C   UNL     1       7.927   6.441 -10.304  0.00  0.00    +0.136 C 
ENDBRANCH  11  13
ENDBRANCH   1  11
TORSDOF 4
ENDMDL
MODEL 7
REMARK VINA RESULT:      -3.7      6.359      7.510
REMARK  Name = 2244
REMARK  5 active torsions:
REMARK  status: ('A' for Active; 'I' for Inactive)
REMARK    1  A    between atoms: O_1  and  C_5
REMARK    2  A    between atoms: O_1  and  C_12
REMARK    3  A    between atoms: O_2  and  C_11
REMARK    4  A    between atoms: C_6  and  C_11
REMARK    5  A    between atoms: C_12  and  C_13
REMARK                            x       y       z     vdW  Elec       q    Type
REMARK                         _______ _______ _______ _____ _____    ______ ____
ROOT
ATOM      1  C   UNL     1       6.864   6.807  -3.373  0.00  0.00    +0.146 A 
ATOM      2  C   UNL     1       7.284   6.623  -4.262  0.00  0.00    +0.101 A 
ATOM      3  C   UNL     1       5.902   6.582  -3.218  0.00  0.00    +0.047 A 
ATOM      4  C   UNL     1       6.741   6.215  -4.996  0.00  0.00    +0.018 A 
ATOM      5  C   UNL     1       5.360   6.173  -3.952  0.00  0.00    +0.004 A 
ATOM      6  C   UNL     1       5.779   5.990  -4.841  0.00  0.00    +0.001 A 
ENDROOT
BRANCH   2   8
ATOM      7  O   UNL     1       8.962   6.220  -4.113  0.00  0.00    -0.245 OA
ATOM      8  C   UNL     1       8.246   6.848  -4.417  0.00  0.00    +0.340 C 
BRANCH   8   9
ATOM      9  O   UNL     1       8.492   7.702  -4.876  0.00  0.00    -0.477 OA
ATOM     10  H   UNL     1       8.701   7.691  -5.460  0.00  0.00    +0.295 HD
ENDBRANCH   8   9
ENDBRANCH   2   8
BRANCH   1  11
ATOM     11  O   UNL     1       7.407   7.215  -2.639  0.00  0.00    -0.425 OA
BRANCH  11  13
ATOM     12  O   UNL     1       7.181   6.253  -1.217  0.00  0.00    -0.251 OA
ATOM     13  C   UNL     1       7.106   7.131  -1.689  0.00  0.00    +0.309 C 
ATOM     14  C   UNL     1       6.732   7.926  -1.211  0.00  0.00    +0.136 C 
ENDBRANCH  11  13
ENDBRANCH   1  11
TORSDOF 4
ENDMDL
MODEL 8
REMARK VINA RESULT:      -3.7      1.790      2.774
REMARK  Name = 2244
REMARK  5 active torsions:
REMARK  status: ('A' for Active; 'I' for Inactive)
REMARK    1  A    between atoms: O_1  and  C_5
REMARK    2  A    between atoms: O_1  and  C_12
REMARK    3  A    between atoms: O_2  and  C_11
REMARK    4  A    between atoms: C_6  and  C_11
REMARK    5  A    between atoms: C_12  and  C_13
REMARK                            x       y       z     vdW  Elec       q    Type
REMARK                         _______ _______ _______ _____ _____    ______ ____
ROOT
ATOM      1  C   UNL     1       9.772   4.223  -9.231  0.00  0.00    +0.146 A 
ATOM      2  C   UNL     1      10.196   4.754  -9.964  0.00  0.00    +0.101 A 
ATOM      3  C   UNL     1       8.828   4.408  -8.960  0.00  0.00    +0.047 A 
ATOM      4  C   UNL     1       9.676   5.472 -10.426  0.00  0.00    +0.018 A 
ATOM      5  C   UNL     1       8.307   5.126  -9.423  0.00  0.00    +0.004 A 
ATOM      6  C   UNL     1       8.731   5.658 -10.156  0.00  0.00    +0.001 A 
ENDROOT
BRANCH   2   8
ATOM      7  O   UNL     1      11.331   3.921 -10.973  0.00  0.00    -0.245 OA
ATOM      8  C   UNL     1      11.141   4.569 -10.234  0.00  0.00    +0.340 C 
BRANCH   8   9
ATOM      9  O   UNL     1      11.895   5.030  -9.767  0.00  0.00    -0.477 OA
ATOM     10  H   UNL     1      11.836   5.195  -9.172  0.00  0.00    +0.295 HD
ENDBRANCH   8   9
ENDBRANCH   2   8
BRANCH   1  11
ATOM     11  O   UNL     1      10.293   3.505  -8.768  0.00  0.00    -0.425 OA
BRANCH  11  13
ATOM     12  O   UNL     1      10.018   3.666  -7.066  0.00  0.00    -0.251 OA
ATOM     13  C   UNL     1       9.962   3.124  -7.905  0.00  0.00    +0.309 C 
ATOM     14  C   UNL     1       9.574   2.203  -7.881  0.00  0.00    +0.136 C 
ENDBRANCH  11  13
ENDBRANCH   1  11
TORSDOF 4
ENDMDL
MODEL 9
REMARK VINA RESULT:      -3.5      1.909      2.982
REMARK  Name = 2244
REMARK  5 active torsions:
REMARK  status: ('A' for Active; 'I' for Inactive)
REMARK    1  A    between atoms: O_1  and  C_5
REMARK    2  A    between atoms: O_1  and  C_12
REMARK    3  A    between atoms: O_2  and  C_11
REMARK    4  A    between atoms: C_6  and  C_11
REMARK    5  A    between atoms: C_12  and  C_13
REMARK                            x       y       z     vdW  Elec       q    Type
REMARK                         _______ _______ _______ _____ _____    ______ ____
ROOT
ATOM      1  C   UNL     1       8.936   5.145  -9.163  0.00  0.00    +0.146 A 
ATOM      2  C   UNL     1       8.764   4.703  -8.282  0.00  0.00    +0.101 A 
ATOM      3  C   UNL     1       9.719   4.865  -9.719  0.00  0.00    +0.047 A 
ATOM      4  C   UNL     1       9.375   3.981  -7.958  0.00  0.00    +0.018 A 
ATOM      5  C   UNL     1      10.329   4.143  -9.394  0.00  0.00    +0.004 A 
ATOM      6  C   UNL     1      10.158   3.701  -8.514  0.00  0.00    +0.001 A 
ENDROOT
BRANCH   2   8
ATOM      7  O   UNL     1       7.099   4.527  -7.841  0.00  0.00    -0.245 OA
ATOM      8  C   UNL     1       7.981   4.983  -7.727  0.00  0.00    +0.340 C 
BRANCH   8   9
ATOM      9  O   UNL     1       8.081   5.718  -7.057  0.00  0.00    -0.477 OA
ATOM     10  H   UNL     1       7.881   6.289  -7.191  0.00  0.00    +0.295 HD
ENDBRANCH   8   9
ENDBRANCH   2   8
BRANCH   1  11
ATOM     11  O   UNL     1       8.325   5.867  -9.487  0.00  0.00    -0.425 OA
BRANCH  11  13
ATOM     12  O   UNL     1       9.132   7.028 -10.488  0.00  0.00    -0.251 OA
ATOM     13  C   UNL     1       8.474   6.282 -10.385  0.00  0.00    +0.309 C 
ATOM     14  C   UNL     1       7.965   5.951 -11.179  0.00  0.00    +0.136 C 
ENDBRANCH  11  13
ENDBRANCH   1  11
TORSDOF 4
ENDMDL
