REMARK  Name = 3672
REMARK  8 active torsions:
REMARK  status: ('A' for Active; 'I' for Inactive)
REMARK    1  A    between atoms: O_1  and  C_15
REMARK    2  A    between atoms: C_3  and  C_4
REMARK    3  A    between atoms: C_3  and  C_8
REMARK    4  A    between atoms: C_3  and  C_9
REMARK    5  A    between atoms: C_4  and  C_5
REMARK    6  A    between atoms: C_6  and  C_7
REMARK    7  A    between atoms: C_7  and  C_14
REMARK    8  A    between atoms: C_7  and  C_15
REMARK                            x       y       z     vdW  Elec       q    Type
REMARK                         _______ _______ _______ _____ _____    ______ ____
ROOT
ATOM      1  C   UNL     1       3.732  -1.155   0.000  0.00  0.00    -0.047 A 
ATOM      2  C   UNL     1       3.732   0.845   0.000  0.00  0.00    -0.034 A 
ATOM      3  C   UNL     1       4.598  -0.655   0.000  0.00  0.00    +0.004 A 
ATOM      4  C   UNL     1       2.866  -0.655   0.000  0.00  0.00    +0.004 A 
ATOM      5  C   UNL     1       4.598   0.345   0.000  0.00  0.00    +0.005 A 
ATOM      6  C   UNL     1       2.866   0.345   0.000  0.00  0.00    +0.005 A 
ENDROOT
BRANCH   2   7
ATOM      7  C   UNL     1       3.732   1.845   0.000  0.00  0.00    +0.124 C 
ATOM      8  C   UNL     1       2.866   2.345   0.000  0.00  0.00    +0.024 C 
BRANCH   7  10
ATOM      9  O   UNL     1       5.464   1.845   0.000  0.00  0.00    -0.250 OA
ATOM     10  C   UNL     1       4.598   2.345   0.000  0.00  0.00    +0.312 C 
BRANCH  10  11
ATOM     11  O   UNL     1       4.598   3.345   0.000  0.00  0.00    -0.480 OA
ATOM     12  H   UNL     1       5.135   3.655   0.000  0.00  0.00    +0.295 HD
ENDBRANCH  10  11
ENDBRANCH   7  10
ENDBRANCH   2   7
BRANCH   1  13
ATOM     13  C   UNL     1       3.732  -2.155   0.000  0.00  0.00    +0.038 C 
BRANCH  13  14
ATOM     14  C   UNL     1       2.866  -2.655   0.000  0.00  0.00    -0.013 C 
ATOM     15  C   UNL     1       2.866  -3.655   0.000  0.00  0.00    +0.007 C 
ATOM     16  C   UNL     1       2.000  -2.155   0.000  0.00  0.00    +0.007 C 
ENDBRANCH  13  14
ENDBRANCH   1  13
TORSDOF 5
