MODEL 1
REMARK VINA RESULT:      -1.5      0.000      0.000
REMARK  Name = 962
REMARK  0 active torsions:
REMARK  status: ('A' for Active; 'I' for Inactive)
REMARK                            x       y       z     vdW  Elec       q    Type
REMARK                         _______ _______ _______ _____ _____    ______ ____
ROOT
ATOM      1  O   HOH     1       9.777   9.015  -4.643  0.00  0.00    -0.410 OA
ATOM      2  H   HOH     0       9.640   8.509  -4.312  0.00  0.00    +0.205 HD
ATOM      3  H   HOH     0      10.359   9.230  -4.654  0.00  0.00    +0.205 HD
ENDROOT
TORSDOF 0
ENDMDL
MODEL 2
REMARK VINA RESULT:      -1.2      2.119      2.119
REMARK  Name = 962
REMARK  0 active torsions:
REMARK  status: ('A' for Active; 'I' for Inactive)
REMARK                            x       y       z     vdW  Elec       q    Type
REMARK                         _______ _______ _______ _____ _____    ______ ____
ROOT
ATOM      1  O   HOH     1       8.371   7.480  -5.037  0.00  0.00    -0.410 OA
ATOM      2  H   HOH     0       8.233   6.974  -4.706  0.00  0.00    +0.205 HD
ATOM      3  H   HOH     0       8.953   7.694  -5.048  0.00  0.00    +0.205 HD
ENDROOT
TORSDOF 0
ENDMDL
MODEL 3
REMARK VINA RESULT:      -1.1      2.254      2.254
REMARK  Name = 962
REMARK  0 active torsions:
REMARK  status: ('A' for Active; 'I' for Inactive)
REMARK                            x       y       z     vdW  Elec       q    Type
REMARK                         _______ _______ _______ _____ _____    ______ ____
ROOT
ATOM      1  O   HOH     1      10.268   8.655  -2.473  0.00  0.00    -0.410 OA
ATOM      2  H   HOH     0       9.944   8.691  -1.946  0.00  0.00    +0.205 HD
ATOM      3  H   HOH     0       9.988   8.759  -3.017  0.00  0.00    +0.205 HD
ENDROOT
TORSDOF 0
ENDMDL
MODEL 4
REMARK VINA RESULT:      -1.0      2.662      2.662
REMARK  Name = 962
REMARK  0 active torsions:
REMARK  status: ('A' for Active; 'I' for Inactive)
REMARK                            x       y       z     vdW  Elec       q    Type
REMARK                         _______ _______ _______ _____ _____    ______ ____
ROOT
ATOM      1  O   HOH     1       9.267   6.440  -4.198  0.00  0.00    -0.410 OA
ATOM      2  H   HOH     0       9.130   5.934  -3.867  0.00  0.00    +0.205 HD
ATOM      3  H   HOH     0       9.849   6.655  -4.209  0.00  0.00    +0.205 HD
ENDROOT
TORSDOF 0
ENDMDL
MODEL 5
REMARK VINA RESULT:      -0.8      6.799      6.799
REMARK  Name = 962
REMARK  0 active torsions:
REMARK  status: ('A' for Active; 'I' for Inactive)
REMARK                            x       y       z     vdW  Elec       q    Type
REMARK                         _______ _______ _______ _____ _____    ______ ____
ROOT
ATOM      1  O   HOH     1       8.237   9.128   1.978  0.00  0.00    -0.410 OA
ATOM      2  H   HOH     0       8.027   9.585   2.341  0.00  0.00    +0.205 HD
ATOM      3  H   HOH     0       8.175   8.537   2.156  0.00  0.00    +0.205 HD
ENDROOT
TORSDOF 0
ENDMDL
MODEL 6
REMARK VINA RESULT:      -0.7      4.114      4.114
REMARK  Name = 962
REMARK  0 active torsions:
REMARK  status: ('A' for Active; 'I' for Inactive)
REMARK                            x       y       z     vdW  Elec       q    Type
REMARK                         _______ _______ _______ _____ _____    ______ ____
ROOT
ATOM      1  O   HOH     1       8.526   8.137  -0.824  0.00  0.00    -0.410 OA
ATOM      2  H   HOH     0       8.533   8.694  -0.552  0.00  0.00    +0.205 HD
ATOM      3  H   HOH     0       9.060   7.853  -0.962  0.00  0.00    +0.205 HD
ENDROOT
TORSDOF 0
ENDMDL
MODEL 7
REMARK VINA RESULT:      -0.7      4.631      4.631
REMARK  Name = 962
REMARK  0 active torsions:
REMARK  status: ('A' for Active; 'I' for Inactive)
REMARK                            x       y       z     vdW  Elec       q    Type
REMARK                         _______ _______ _______ _____ _____    ______ ____
ROOT
ATOM      1  O   HOH     1       6.259   8.689  -1.650  0.00  0.00    -0.410 OA
ATOM      2  H   HOH     0       5.935   8.726  -1.123  0.00  0.00    +0.205 HD
ATOM      3  H   HOH     0       5.979   8.794  -2.194  0.00  0.00    +0.205 HD
ENDROOT
TORSDOF 0
ENDMDL
MODEL 8
REMARK VINA RESULT:      -0.7      4.183      4.183
REMARK  Name = 962
REMARK  0 active torsions:
REMARK  status: ('A' for Active; 'I' for Inactive)
REMARK                            x       y       z     vdW  Elec       q    Type
REMARK                         _______ _______ _______ _____ _____    ______ ____
ROOT
ATOM      1  O   HOH     1       5.883   7.802  -5.568  0.00  0.00    -0.410 OA
ATOM      2  H   HOH     0       5.890   8.359  -5.296  0.00  0.00    +0.205 HD
ATOM      3  H   HOH     0       6.416   7.518  -5.706  0.00  0.00    +0.205 HD
ENDROOT
TORSDOF 0
ENDMDL
MODEL 9
REMARK VINA RESULT:      -0.6      6.882      6.882
REMARK  Name = 962
REMARK  0 active torsions:
REMARK  status: ('A' for Active; 'I' for Inactive)
REMARK                            x       y       z     vdW  Elec       q    Type
REMARK                         _______ _______ _______ _____ _____    ______ ____
ROOT
ATOM      1  O   HOH     1      10.502   2.824  -1.727  0.00  0.00    -0.410 OA
ATOM      2  H   HOH     0      10.401   3.134  -1.200  0.00  0.00    +0.205 HD
ATOM      3  H   HOH     0      10.544   2.205  -1.720  0.00  0.00    +0.205 HD
ENDROOT
TORSDOF 0
ENDMDL
