MODEL 1
REMARK VINA RESULT:      -4.5      0.000      0.000
REMARK  Name = 2244
REMARK  5 active torsions:
REMARK  status: ('A' for Active; 'I' for Inactive)
REMARK    1  A    between atoms: O_1  and  C_5
REMARK    2  A    between atoms: O_1  and  C_12
REMARK    3  A    between atoms: O_2  and  C_11
REMARK    4  A    between atoms: C_6  and  C_11
REMARK    5  A    between atoms: C_12  and  C_13
REMARK                            x       y       z     vdW  Elec       q    Type
REMARK                         _______ _______ _______ _____ _____    ______ ____
ROOT
ATOM      1  C   UNL     1       9.328   5.384  -9.937  0.00  0.00    +0.146 A 
ATOM      2  C   UNL     1       8.586   6.040 -10.075  0.00  0.00    +0.101 A 
ATOM      3  C   UNL     1       9.274   4.718  -9.194  0.00  0.00    +0.047 A 
ATOM      4  C   UNL     1       7.790   6.030  -9.469  0.00  0.00    +0.018 A 
ATOM      5  C   UNL     1       8.479   4.707  -8.588  0.00  0.00    +0.004 A 
ATOM      6  C   UNL     1       7.737   5.363  -8.725  0.00  0.00    +0.001 A 
ENDROOT
BRANCH   2   8
ATOM      7  O   UNL     1       8.286   6.474 -11.725  0.00  0.00    -0.245 OA
ATOM      8  C   UNL     1       8.639   6.707 -10.819  0.00  0.00    +0.340 C 
BRANCH   8   9
ATOM      9  O   UNL     1       9.046   7.606 -10.656  0.00  0.00    -0.477 OA
ATOM     10  H   UNL     1       8.955   7.893 -10.114  0.00  0.00    +0.295 HD
ENDBRANCH   8   9
ENDBRANCH   2   8
BRANCH   1  11
ATOM     11  O   UNL     1      10.123   5.395 -10.543  0.00  0.00    -0.425 OA
BRANCH  11  13
ATOM     12  O   UNL     1      11.625   5.048  -9.754  0.00  0.00    -0.251 OA
ATOM     13  C   UNL     1      10.889   4.775 -10.373  0.00  0.00    +0.309 C 
ATOM     14  C   UNL     1      10.919   3.882 -10.822  0.00  0.00    +0.136 C 
ENDBRANCH  11  13
ENDBRANCH   1  11
TORSDOF 4
ENDMDL
MODEL 2
REMARK VINA RESULT:      -4.2      0.914      2.746
REMARK  Name = 2244
REMARK  5 active torsions:
REMARK  status: ('A' for Active; 'I' for Inactive)
REMARK    1  A    between atoms: O_1  and  C_5
REMARK    2  A    between atoms: O_1  and  C_12
REMARK    3  A    between atoms: O_2  and  C_11
REMARK    4  A    between atoms: C_6  and  C_11
REMARK    5  A    between atoms: C_12  and  C_13
REMARK                            x       y       z     vdW  Elec       q    Type
REMARK                         _______ _______ _______ _____ _____    ______ ____
ROOT
ATOM      1  C   UNL     1       9.537   4.960  -9.789  0.00  0.00    +0.146 A 
ATOM      2  C   UNL     1      10.332   4.464  -9.442  0.00  0.00    +0.101 A 
ATOM      3  C   UNL     1       8.692   4.986  -9.256  0.00  0.00    +0.047 A 
ATOM      4  C   UNL     1      10.283   3.994  -8.561  0.00  0.00    +0.018 A 
ATOM      5  C   UNL     1       8.642   4.516  -8.375  0.00  0.00    +0.004 A 
ATOM      6  C   UNL     1       9.437   4.020  -8.027  0.00  0.00    +0.001 A 
ENDROOT
BRANCH   2   8
ATOM      7  O   UNL     1      11.293   3.756 -10.697  0.00  0.00    -0.245 OA
ATOM      8  C   UNL     1      11.178   4.438  -9.975  0.00  0.00    +0.340 C 
BRANCH   8   9
ATOM      9  O   UNL     1      11.908   5.095  -9.787  0.00  0.00    -0.477 OA
ATOM     10  H   UNL     1      12.099   5.188  -9.204  0.00  0.00    +0.295 HD
ENDBRANCH   8   9
ENDBRANCH   2   8
BRANCH   1  11
ATOM     11  O   UNL     1       9.587   5.431 -10.671  0.00  0.00    -0.425 OA
BRANCH  11  13
ATOM     12  O   UNL     1       9.150   7.104 -10.572  0.00  0.00    -0.251 OA
ATOM     13  C   UNL     1       8.950   6.173 -10.878  0.00  0.00    +0.309 C 
ATOM     14  C   UNL     1       8.112   5.985 -11.391  0.00  0.00    +0.136 C 
ENDBRANCH  11  13
ENDBRANCH   1  11
TORSDOF 4
ENDMDL
MODEL 3
REMARK VINA RESULT:      -4.0      1.426      2.771
REMARK  Name = 2244
REMARK  5 active torsions:
REMARK  status: ('A' for Active; 'I' for Inactive)
REMARK    1  A    between atoms: O_1  and  C_5
REMARK    2  A    between atoms: O_1  and  C_12
REMARK    3  A    between atoms: O_2  and  C_11
REMARK    4  A    between atoms: C_6  and  C_11
REMARK    5  A    between atoms: C_12  and  C_13
REMARK                            x       y       z     vdW  Elec       q    Type
REMARK                         _______ _______ _______ _____ _____    ______ ____
ROOT
ATOM      1  C   UNL     1       8.367   5.716  -9.494  0.00  0.00    +0.146 A 
ATOM      2  C   UNL     1       8.902   5.965 -10.301  0.00  0.00    +0.101 A 
ATOM      3  C   UNL     1       8.632   4.926  -8.942  0.00  0.00    +0.047 A 
ATOM      4  C   UNL     1       9.703   5.424 -10.556  0.00  0.00    +0.018 A 
ATOM      5  C   UNL     1       9.433   4.384  -9.197  0.00  0.00    +0.004 A 
ATOM      6  C   UNL     1       9.969   4.633 -10.004  0.00  0.00    +0.001 A 
ENDROOT
BRANCH   2   8
ATOM      7  O   UNL     1       7.979   6.647 -11.599  0.00  0.00    -0.245 OA
ATOM      8  C   UNL     1       8.636   6.756 -10.853  0.00  0.00    +0.340 C 
BRANCH   8   9
ATOM      9  O   UNL     1       9.028   7.655 -10.659  0.00  0.00    -0.477 OA
ATOM     10  H   UNL     1       9.643   7.730 -10.647  0.00  0.00    +0.295 HD
ENDBRANCH   8   9
ENDBRANCH   2   8
BRANCH   1  11
ATOM     11  O   UNL     1       7.566   6.258  -9.239  0.00  0.00    -0.425 OA
BRANCH  11  13
ATOM     12  O   UNL     1       7.413   6.383  -7.518  0.00  0.00    -0.251 OA
ATOM     13  C   UNL     1       7.069   6.050  -8.396  0.00  0.00    +0.309 C 
ATOM     14  C   UNL     1       6.229   5.509  -8.431  0.00  0.00    +0.136 C 
ENDBRANCH  11  13
ENDBRANCH   1  11
TORSDOF 4
ENDMDL
MODEL 4
REMARK VINA RESULT:      -3.9      3.630      4.689
REMARK  Name = 2244
REMARK  5 active torsions:
REMARK  status: ('A' for Active; 'I' for Inactive)
REMARK    1  A    between atoms: O_1  and  C_5
REMARK    2  A    between atoms: O_1  and  C_12
REMARK    3  A    between atoms: O_2  and  C_11
REMARK    4  A    between atoms: C_6  and  C_11
REMARK    5  A    between atoms: C_12  and  C_13
REMARK                            x       y       z     vdW  Elec       q    Type
REMARK                         _______ _______ _______ _____ _____    ______ ____
ROOT
ATOM      1  C   UNL     1       6.752   6.399  -6.945  0.00  0.00    +0.146 A 
ATOM      2  C   UNL     1       6.683   6.710  -5.997  0.00  0.00    +0.101 A 
ATOM      3  C   UNL     1       5.984   6.532  -7.572  0.00  0.00    +0.047 A 
ATOM      4  C   UNL     1       5.846   7.154  -5.676  0.00  0.00    +0.018 A 
ATOM      5  C   UNL     1       5.148   6.977  -7.251  0.00  0.00    +0.004 A 
ATOM      6  C   UNL     1       5.079   7.288  -6.303  0.00  0.00    +0.001 A 
ENDROOT
BRANCH   2   8
ATOM      7  O   UNL     1       7.530   5.725  -4.851  0.00  0.00    -0.245 OA
ATOM      8  C   UNL     1       7.450   6.577  -5.370  0.00  0.00    +0.340 C 
BRANCH   8   9
ATOM      9  O   UNL     1       8.138   7.295  -5.261  0.00  0.00    -0.477 OA
ATOM     10  H   UNL     1       8.022   7.868  -5.466  0.00  0.00    +0.295 HD
ENDBRANCH   8   9
ENDBRANCH   2   8
BRANCH   1  11
ATOM     11  O   UNL     1       7.588   5.955  -7.265  0.00  0.00    -0.425 OA
BRANCH  11  13
ATOM     12  O   UNL     1       7.861   6.214  -8.956  0.00  0.00    -0.251 OA
ATOM     13  C   UNL     1       7.639   5.600  -8.199  0.00  0.00    +0.309 C 
ATOM     14  C   UNL     1       7.469   4.630  -8.375  0.00  0.00    +0.136 C 
ENDBRANCH  11  13
ENDBRANCH   1  11
TORSDOF 4
ENDMDL
MODEL 5
REMARK VINA RESULT:      -3.8      1.600      2.410
REMARK  Name = 2244
REMARK  5 active torsions:
REMARK  status: ('A' for Active; 'I' for Inactive)
REMARK    1  A    between atoms: O_1  and  C_5
REMARK    2  A    between atoms: O_1  and  C_12
REMARK    3  A    between atoms: O_2  and  C_11
REMARK    4  A    between atoms: C_6  and  C_11
REMARK    5  A    between atoms: C_12  and  C_13
REMARK                            x       y       z     vdW  Elec       q    Type
REMARK                         _______ _______ _______ _____ _____    ______ ____
ROOT
ATOM      1  C   UNL     1       9.408   4.875  -9.390  0.00  0.00    +0.146 A 
ATOM      2  C   UNL     1       8.653   4.871  -8.735  0.00  0.00    +0.101 A 
ATOM      3  C   UNL     1       9.349   5.433 -10.218  0.00  0.00    +0.047 A 
ATOM      4  C   UNL     1       7.838   5.424  -8.907  0.00  0.00    +0.018 A 
ATOM      5  C   UNL     1       8.534   5.987 -10.390  0.00  0.00    +0.004 A 
ATOM      6  C   UNL     1       7.779   5.982  -9.735  0.00  0.00    +0.001 A 
ENDROOT
BRANCH   2   8
ATOM      7  O   UNL     1       8.392   3.366  -7.918  0.00  0.00    -0.245 OA
ATOM      8  C   UNL     1       8.713   4.313  -7.907  0.00  0.00    +0.340 C 
BRANCH   8   9
ATOM      9  O   UNL     1       9.094   4.702  -7.068  0.00  0.00    -0.477 OA
ATOM     10  H   UNL     1       8.722   4.831  -6.589  0.00  0.00    +0.295 HD
ENDBRANCH   8   9
ENDBRANCH   2   8
BRANCH   1  11
ATOM     11  O   UNL     1      10.223   4.322  -9.218  0.00  0.00    -0.425 OA
BRANCH  11  13
ATOM     12  O   UNL     1      11.660   5.090  -9.805  0.00  0.00    -0.251 OA
ATOM     13  C   UNL     1      10.991   4.349  -9.858  0.00  0.00    +0.309 C 
ATOM     14  C   UNL     1      11.089   3.636 -10.552  0.00  0.00    +0.136 C 
ENDBRANCH  11  13
ENDBRANCH   1  11
TORSDOF 4
ENDMDL
MODEL 6
REMARK VINA RESULT:      -3.8      6.055      7.295
REMARK  Name = 2244
REMARK  5 active torsions:
REMARK  status: ('A' for Active; 'I' for Inactive)
REMARK    1  A    between atoms: O_1  and  C_5
REMARK    2  A    between atoms: O_1  and  C_12
REMARK    3  A    between atoms: O_2  and  C_11
REMARK    4  A    between atoms: C_6  and  C_11
REMARK    5  A    between atoms: C_12  and  C_13
REMARK                            x       y       z     vdW  Elec       q    Type
REMARK                         _______ _______ _______ _____ _____    ______ ____
ROOT
ATOM      1  C   UNL     1       7.027   6.717  -3.691  0.00  0.00    +0.146 A 
ATOM      2  C   UNL     1       7.651   6.718  -4.472  0.00  0.00    +0.101 A 
ATOM      3  C   UNL     1       6.075   6.435  -3.812  0.00  0.00    +0.047 A 
ATOM      4  C   UNL     1       7.324   6.438  -5.374  0.00  0.00    +0.018 A 
ATOM      5  C   UNL     1       5.748   6.155  -4.715  0.00  0.00    +0.004 A 
ATOM      6  C   UNL     1       6.372   6.156  -5.496  0.00  0.00    +0.001 A 
ENDROOT
BRANCH   2   8
ATOM      7  O   UNL     1       9.264   6.368  -3.945  0.00  0.00    -0.245 OA
ATOM      8  C   UNL     1       8.603   7.000  -4.350  0.00  0.00    +0.340 C 
BRANCH   8   9
ATOM      9  O   UNL     1       8.894   7.914  -4.634  0.00  0.00    -0.477 OA
ATOM     10  H   UNL     1       8.799   8.399  -4.260  0.00  0.00    +0.295 HD
ENDBRANCH   8   9
ENDBRANCH   2   8
BRANCH   1  11
ATOM     11  O   UNL     1       7.354   6.997  -2.788  0.00  0.00    -0.425 OA
BRANCH  11  13
ATOM     12  O   UNL     1       6.155   7.930  -1.956  0.00  0.00    -0.251 OA
ATOM     13  C   UNL     1       6.708   7.100  -2.032  0.00  0.00    +0.309 C 
ATOM     14  C   UNL     1       6.614   6.374  -1.352  0.00  0.00    +0.136 C 
ENDBRANCH  11  13
ENDBRANCH   1  11
TORSDOF 4
ENDMDL
MODEL 7
REMARK VINA RESULT:      -3.8      4.377      5.431
REMARK  Name = 2244
REMARK  5 active torsions:
REMARK  status: ('A' for Active; 'I' for Inactive)
REMARK    1  A    between atoms: O_1  and  C_5
REMARK    2  A    between atoms: O_1  and  C_12
REMARK    3  A    between atoms: O_2  and  C_11
REMARK    4  A    between atoms: C_6  and  C_11
REMARK    5  A    between atoms: C_12  and  C_13
REMARK                            x       y       z     vdW  Elec       q    Type
REMARK                         _______ _______ _______ _____ _____    ______ ____
ROOT
ATOM      1  C   UNL     1       7.122   5.741  -5.461  0.00  0.00    +0.146 A 
ATOM      2  C   UNL     1       7.281   6.339  -4.676  0.00  0.00    +0.101 A 
ATOM      3  C   UNL     1       6.214   5.352  -5.617  0.00  0.00    +0.047 A 
ATOM      4  C   UNL     1       6.533   6.548  -4.046  0.00  0.00    +0.018 A 
ATOM      5  C   UNL     1       5.466   5.561  -4.988  0.00  0.00    +0.004 A 
ATOM      6  C   UNL     1       5.625   6.159  -4.202  0.00  0.00    +0.001 A 
ENDROOT
BRANCH   2   8
ATOM      7  O   UNL     1       8.849   6.244  -3.946  0.00  0.00    -0.245 OA
ATOM      8  C   UNL     1       8.189   6.729  -4.519  0.00  0.00    +0.340 C 
BRANCH   8   9
ATOM      9  O   UNL     1       8.437   7.603  -4.937  0.00  0.00    -0.477 OA
ATOM     10  H   UNL     1       8.261   7.730  -5.518  0.00  0.00    +0.295 HD
ENDBRANCH   8   9
ENDBRANCH   2   8
BRANCH   1  11
ATOM     11  O   UNL     1       7.870   5.533  -6.090  0.00  0.00    -0.425 OA
BRANCH  11  13
ATOM     12  O   UNL     1       7.461   6.208  -7.632  0.00  0.00    -0.251 OA
ATOM     13  C   UNL     1       7.685   5.415  -7.066  0.00  0.00    +0.309 C 
ATOM     14  C   UNL     1       7.725   4.503  -7.476  0.00  0.00    +0.136 C 
ENDBRANCH  11  13
ENDBRANCH   1  11
TORSDOF 4
ENDMDL
MODEL 8
REMARK VINA RESULT:      -3.6      1.837      2.876
REMARK  Name = 2244
REMARK  5 active torsions:
REMARK  status: ('A' for Active; 'I' for Inactive)
REMARK    1  A    between atoms: O_1  and  C_5
REMARK    2  A    between atoms: O_1  and  C_12
REMARK    3  A    between atoms: O_2  and  C_11
REMARK    4  A    between atoms: C_6  and  C_11
REMARK    5  A    between atoms: C_12  and  C_13
REMARK                            x       y       z     vdW  Elec       q    Type
REMARK                         _______ _______ _______ _____ _____    ______ ____
ROOT
ATOM      1  C   UNL     1       9.617   4.612  -9.333  0.00  0.00    +0.146 A 
ATOM      2  C   UNL     1      10.217   4.905 -10.078  0.00  0.00    +0.101 A 
ATOM      3  C   UNL     1       8.685   4.969  -9.272  0.00  0.00    +0.047 A 
ATOM      4  C   UNL     1       9.884   5.555 -10.762  0.00  0.00    +0.018 A 
ATOM      5  C   UNL     1       8.353   5.619  -9.955  0.00  0.00    +0.004 A 
ATOM      6  C   UNL     1       8.952   5.912 -10.700  0.00  0.00    +0.001 A 
ENDROOT
BRANCH   2   8
ATOM      7  O   UNL     1      11.342   3.750 -10.711  0.00  0.00    -0.245 OA
ATOM      8  C   UNL     1      11.149   4.548 -10.140  0.00  0.00    +0.340 C 
BRANCH   8   9
ATOM      9  O   UNL     1      11.888   4.989  -9.631  0.00  0.00    -0.477 OA
ATOM     10  H   UNL     1      12.420   4.687  -9.534  0.00  0.00    +0.295 HD
ENDBRANCH   8   9
ENDBRANCH   2   8
BRANCH   1  11
ATOM     11  O   UNL     1       9.950   3.962  -8.650  0.00  0.00    -0.425 OA
BRANCH  11  13
ATOM     12  O   UNL     1       9.142   4.192  -7.136  0.00  0.00    -0.251 OA
ATOM     13  C   UNL     1       9.334   3.627  -7.938  0.00  0.00    +0.309 C 
ATOM     14  C   UNL     1       8.910   2.726  -8.027  0.00  0.00    +0.136 C 
ENDBRANCH  11  13
ENDBRANCH   1  11
TORSDOF 4
ENDMDL
MODEL 9
REMARK VINA RESULT:      -3.5      5.385      6.824
REMARK  Name = 2244
REMARK  5 active torsions:
REMARK  status: ('A' for Active; 'I' for Inactive)
REMARK    1  A    between atoms: O_1  and  C_5
REMARK    2  A    between atoms: O_1  and  C_12
REMARK    3  A    between atoms: O_2  and  C_11
REMARK    4  A    between atoms: C_6  and  C_11
REMARK    5  A    between atoms: C_12  and  C_13
REMARK                            x       y       z     vdW  Elec       q    Type
REMARK                         _______ _______ _______ _____ _____    ______ ____
ROOT
ATOM      1  C   UNL     1       6.491   6.516  -4.644  0.00  0.00    +0.146 A 
ATOM      2  C   UNL     1       7.385   6.414  -5.081  0.00  0.00    +0.101 A 
ATOM      3  C   UNL     1       5.672   6.157  -5.091  0.00  0.00    +0.047 A 
ATOM      4  C   UNL     1       7.459   5.952  -5.965  0.00  0.00    +0.018 A 
ATOM      5  C   UNL     1       5.746   5.695  -5.975  0.00  0.00    +0.004 A 
ATOM      6  C   UNL     1       6.640   5.593  -6.412  0.00  0.00    +0.001 A 
ENDROOT
BRANCH   2   8
ATOM      7  O   UNL     1       8.694   6.214  -3.965  0.00  0.00    -0.245 OA
ATOM      8  C   UNL     1       8.204   6.773  -4.634  0.00  0.00    +0.340 C 
BRANCH   8   9
ATOM      9  O   UNL     1       8.532   7.691  -4.855  0.00  0.00    -0.477 OA
ATOM     10  H   UNL     1       8.127   8.151  -4.952  0.00  0.00    +0.295 HD
ENDBRANCH   8   9
ENDBRANCH   2   8
BRANCH   1  11
ATOM     11  O   UNL     1       6.416   6.978  -3.760  0.00  0.00    -0.425 OA
BRANCH  11  13
ATOM     12  O   UNL     1       4.972   7.929  -3.667  0.00  0.00    -0.251 OA
ATOM     13  C   UNL     1       5.516   7.148  -3.360  0.00  0.00    +0.309 C 
ATOM     14  C   UNL     1       5.160   6.539  -2.651  0.00  0.00    +0.136 C 
ENDBRANCH  11  13
ENDBRANCH   1  11
TORSDOF 4
ENDMDL
