MODEL 1
REMARK VINA RESULT:      -4.5      0.000      0.000
REMARK  Name = 2244
REMARK  5 active torsions:
REMARK  status: ('A' for Active; 'I' for Inactive)
REMARK    1  A    between atoms: O_1  and  C_5
REMARK    2  A    between atoms: O_1  and  C_12
REMARK    3  A    between atoms: O_2  and  C_11
REMARK    4  A    between atoms: C_6  and  C_11
REMARK    5  A    between atoms: C_12  and  C_13
REMARK                            x       y       z     vdW  Elec       q    Type
REMARK                         _______ _______ _______ _____ _____    ______ ____
ROOT
ATOM      1  C   UNL     1       9.325   5.391  -9.937  0.00  0.00    +0.146 A 
ATOM      2  C   UNL     1       8.582   6.044 -10.076  0.00  0.00    +0.101 A 
ATOM      3  C   UNL     1       9.272   4.724  -9.193  0.00  0.00    +0.047 A 
ATOM      4  C   UNL     1       7.785   6.032  -9.471  0.00  0.00    +0.018 A 
ATOM      5  C   UNL     1       8.476   4.712  -8.588  0.00  0.00    +0.004 A 
ATOM      6  C   UNL     1       7.732   5.365  -8.727  0.00  0.00    +0.001 A 
ENDROOT
BRANCH   2   8
ATOM      7  O   UNL     1       8.280   6.479 -11.725  0.00  0.00    -0.245 OA
ATOM      8  C   UNL     1       8.634   6.711 -10.819  0.00  0.00    +0.340 C 
BRANCH   8   9
ATOM      9  O   UNL     1       9.042   7.610 -10.657  0.00  0.00    -0.477 OA
ATOM     10  H   UNL     1       9.366   7.888 -11.106  0.00  0.00    +0.295 HD
ENDBRANCH   8   9
ENDBRANCH   2   8
BRANCH   1  11
ATOM     11  O   UNL     1      10.122   5.403 -10.541  0.00  0.00    -0.425 OA
BRANCH  11  13
ATOM     12  O   UNL     1      11.623   5.045  -9.755  0.00  0.00    -0.251 OA
ATOM     13  C   UNL     1      10.885   4.779 -10.375  0.00  0.00    +0.309 C 
ATOM     14  C   UNL     1      10.910   3.888 -10.830  0.00  0.00    +0.136 C 
ENDBRANCH  11  13
ENDBRANCH   1  11
TORSDOF 4
ENDMDL
MODEL 2
REMARK VINA RESULT:      -4.0      1.429      2.781
REMARK  Name = 2244
REMARK  5 active torsions:
REMARK  status: ('A' for Active; 'I' for Inactive)
REMARK    1  A    between atoms: O_1  and  C_5
REMARK    2  A    between atoms: O_1  and  C_12
REMARK    3  A    between atoms: O_2  and  C_11
REMARK    4  A    between atoms: C_6  and  C_11
REMARK    5  A    between atoms: C_12  and  C_13
REMARK                            x       y       z     vdW  Elec       q    Type
REMARK                         _______ _______ _______ _____ _____    ______ ____
ROOT
ATOM      1  C   UNL     1       8.343   5.730  -9.483  0.00  0.00    +0.146 A 
ATOM      2  C   UNL     1       8.883   5.978 -10.287  0.00  0.00    +0.101 A 
ATOM      3  C   UNL     1       8.606   4.941  -8.928  0.00  0.00    +0.047 A 
ATOM      4  C   UNL     1       9.687   5.438 -10.536  0.00  0.00    +0.018 A 
ATOM      5  C   UNL     1       9.410   4.400  -9.176  0.00  0.00    +0.004 A 
ATOM      6  C   UNL     1       9.950   4.649  -9.980  0.00  0.00    +0.001 A 
ENDROOT
BRANCH   2   8
ATOM      7  O   UNL     1       7.953   6.659 -11.579  0.00  0.00    -0.245 OA
ATOM      8  C   UNL     1       8.620   6.767 -10.842  0.00  0.00    +0.340 C 
BRANCH   8   9
ATOM      9  O   UNL     1       9.023   7.664 -10.660  0.00  0.00    -0.477 OA
ATOM     10  H   UNL     1       8.896   7.959 -10.130  0.00  0.00    +0.295 HD
ENDBRANCH   8   9
ENDBRANCH   2   8
BRANCH   1  11
ATOM     11  O   UNL     1       7.539   6.270  -9.234  0.00  0.00    -0.425 OA
BRANCH  11  13
ATOM     12  O   UNL     1       7.396   6.402  -7.513  0.00  0.00    -0.251 OA
ATOM     13  C   UNL     1       7.044   6.070  -8.388  0.00  0.00    +0.309 C 
ATOM     14  C   UNL     1       6.198   5.539  -8.418  0.00  0.00    +0.136 C 
ENDBRANCH  11  13
ENDBRANCH   1  11
TORSDOF 4
ENDMDL
MODEL 3
REMARK VINA RESULT:      -3.9      3.625      4.682
REMARK  Name = 2244
REMARK  5 active torsions:
REMARK  status: ('A' for Active; 'I' for Inactive)
REMARK    1  A    between atoms: O_1  and  C_5
REMARK    2  A    between atoms: O_1  and  C_12
REMARK    3  A    between atoms: O_2  and  C_11
REMARK    4  A    between atoms: C_6  and  C_11
REMARK    5  A    between atoms: C_12  and  C_13
REMARK                            x       y       z     vdW  Elec       q    Type
REMARK                         _______ _______ _______ _____ _____    ______ ____
ROOT
ATOM      1  C   UNL     1       6.753   6.396  -6.949  0.00  0.00    +0.146 A 
ATOM      2  C   UNL     1       6.683   6.708  -6.001  0.00  0.00    +0.101 A 
ATOM      3  C   UNL     1       5.986   6.529  -7.576  0.00  0.00    +0.047 A 
ATOM      4  C   UNL     1       5.847   7.154  -5.682  0.00  0.00    +0.018 A 
ATOM      5  C   UNL     1       5.149   6.974  -7.257  0.00  0.00    +0.004 A 
ATOM      6  C   UNL     1       5.080   7.287  -6.309  0.00  0.00    +0.001 A 
ENDROOT
BRANCH   2   8
ATOM      7  O   UNL     1       7.530   5.724  -4.855  0.00  0.00    -0.245 OA
ATOM      8  C   UNL     1       7.450   6.575  -5.374  0.00  0.00    +0.340 C 
BRANCH   8   9
ATOM      9  O   UNL     1       8.137   7.294  -5.264  0.00  0.00    -0.477 OA
ATOM     10  H   UNL     1       8.359   7.589  -5.763  0.00  0.00    +0.295 HD
ENDBRANCH   8   9
ENDBRANCH   2   8
BRANCH   1  11
ATOM     11  O   UNL     1       7.589   5.950  -7.268  0.00  0.00    -0.425 OA
BRANCH  11  13
ATOM     12  O   UNL     1       7.868   6.214  -8.957  0.00  0.00    -0.251 OA
ATOM     13  C   UNL     1       7.642   5.598  -8.203  0.00  0.00    +0.309 C 
ATOM     14  C   UNL     1       7.469   4.630  -8.383  0.00  0.00    +0.136 C 
ENDBRANCH  11  13
ENDBRANCH   1  11
TORSDOF 4
ENDMDL
MODEL 4
REMARK VINA RESULT:      -3.9      6.320      7.468
REMARK  Name = 2244
REMARK  5 active torsions:
REMARK  status: ('A' for Active; 'I' for Inactive)
REMARK    1  A    between atoms: O_1  and  C_5
REMARK    2  A    between atoms: O_1  and  C_12
REMARK    3  A    between atoms: O_2  and  C_11
REMARK    4  A    between atoms: C_6  and  C_11
REMARK    5  A    between atoms: C_12  and  C_13
REMARK                            x       y       z     vdW  Elec       q    Type
REMARK                         _______ _______ _______ _____ _____    ______ ____
ROOT
ATOM      1  C   UNL     1       7.092   6.717  -3.374  0.00  0.00    +0.146 A 
ATOM      2  C   UNL     1       7.576   6.544  -4.231  0.00  0.00    +0.101 A 
ATOM      3  C   UNL     1       6.137   6.439  -3.274  0.00  0.00    +0.047 A 
ATOM      4  C   UNL     1       7.106   6.091  -4.989  0.00  0.00    +0.018 A 
ATOM      5  C   UNL     1       5.666   5.987  -4.032  0.00  0.00    +0.004 A 
ATOM      6  C   UNL     1       6.150   5.813  -4.889  0.00  0.00    +0.001 A 
ENDROOT
BRANCH   2   8
ATOM      7  O   UNL     1       9.264   6.209  -4.035  0.00  0.00    -0.245 OA
ATOM      8  C   UNL     1       8.532   6.822  -4.331  0.00  0.00    +0.340 C 
BRANCH   8   9
ATOM      9  O   UNL     1       8.754   7.712  -4.727  0.00  0.00    -0.477 OA
ATOM     10  H   UNL     1       8.746   8.220  -4.372  0.00  0.00    +0.295 HD
ENDBRANCH   8   9
ENDBRANCH   2   8
BRANCH   1  11
ATOM     11  O   UNL     1       7.563   7.170  -2.616  0.00  0.00    -0.425 OA
BRANCH  11  13
ATOM     12  O   UNL     1       7.230   6.266  -1.176  0.00  0.00    -0.251 OA
ATOM     13  C   UNL     1       7.184   7.122  -1.692  0.00  0.00    +0.309 C 
ATOM     14  C   UNL     1       6.758   7.930  -1.284  0.00  0.00    +0.136 C 
ENDBRANCH  11  13
ENDBRANCH   1  11
TORSDOF 4
ENDMDL
MODEL 5
REMARK VINA RESULT:      -3.8      1.597      2.406
REMARK  Name = 2244
REMARK  5 active torsions:
REMARK  status: ('A' for Active; 'I' for Inactive)
REMARK    1  A    between atoms: O_1  and  C_5
REMARK    2  A    between atoms: O_1  and  C_12
REMARK    3  A    between atoms: O_2  and  C_11
REMARK    4  A    between atoms: C_6  and  C_11
REMARK    5  A    between atoms: C_12  and  C_13
REMARK                            x       y       z     vdW  Elec       q    Type
REMARK                         _______ _______ _______ _____ _____    ______ ____
ROOT
ATOM      1  C   UNL     1       9.394   4.884  -9.394  0.00  0.00    +0.146 A 
ATOM      2  C   UNL     1       8.641   4.888  -8.736  0.00  0.00    +0.101 A 
ATOM      3  C   UNL     1       9.339   5.442 -10.222  0.00  0.00    +0.047 A 
ATOM      4  C   UNL     1       7.832   5.451  -8.907  0.00  0.00    +0.018 A 
ATOM      5  C   UNL     1       8.530   6.004 -10.392  0.00  0.00    +0.004 A 
ATOM      6  C   UNL     1       7.777   6.009  -9.734  0.00  0.00    +0.001 A 
ENDROOT
BRANCH   2   8
ATOM      7  O   UNL     1       8.377   3.383  -7.921  0.00  0.00    -0.245 OA
ATOM      8  C   UNL     1       8.697   4.330  -7.908  0.00  0.00    +0.340 C 
BRANCH   8   9
ATOM      9  O   UNL     1       9.073   4.720  -7.068  0.00  0.00    -0.477 OA
ATOM     10  H   UNL     1       8.698   4.853  -6.593  0.00  0.00    +0.295 HD
ENDBRANCH   8   9
ENDBRANCH   2   8
BRANCH   1  11
ATOM     11  O   UNL     1      10.203   4.321  -9.224  0.00  0.00    -0.425 OA
BRANCH  11  13
ATOM     12  O   UNL     1      11.644   5.093  -9.797  0.00  0.00    -0.251 OA
ATOM     13  C   UNL     1      10.976   4.351  -9.858  0.00  0.00    +0.309 C 
ATOM     14  C   UNL     1      11.080   3.640 -10.554  0.00  0.00    +0.136 C 
ENDBRANCH  11  13
ENDBRANCH   1  11
TORSDOF 4
ENDMDL
MODEL 6
REMARK VINA RESULT:      -3.6      1.832      2.863
REMARK  Name = 2244
REMARK  5 active torsions:
REMARK  status: ('A' for Active; 'I' for Inactive)
REMARK    1  A    between atoms: O_1  and  C_5
REMARK    2  A    between atoms: O_1  and  C_12
REMARK    3  A    between atoms: O_2  and  C_11
REMARK    4  A    between atoms: C_6  and  C_11
REMARK    5  A    between atoms: C_12  and  C_13
REMARK                            x       y       z     vdW  Elec       q    Type
REMARK                         _______ _______ _______ _____ _____    ______ ____
ROOT
ATOM      1  C   UNL     1       9.632   4.611  -9.336  0.00  0.00    +0.146 A 
ATOM      2  C   UNL     1      10.219   4.916 -10.086  0.00  0.00    +0.101 A 
ATOM      3  C   UNL     1       8.700   4.963  -9.256  0.00  0.00    +0.047 A 
ATOM      4  C   UNL     1       9.874   5.572 -10.756  0.00  0.00    +0.018 A 
ATOM      5  C   UNL     1       8.354   5.620  -9.926  0.00  0.00    +0.004 A 
ATOM      6  C   UNL     1       8.941   5.924 -10.676  0.00  0.00    +0.001 A 
ENDROOT
BRANCH   2   8
ATOM      7  O   UNL     1      11.339   3.770 -10.745  0.00  0.00    -0.245 OA
ATOM      8  C   UNL     1      11.152   4.563 -10.165  0.00  0.00    +0.340 C 
BRANCH   8   9
ATOM      9  O   UNL     1      11.897   5.004  -9.665  0.00  0.00    -0.477 OA
ATOM     10  H   UNL     1      12.464   5.033  -9.915  0.00  0.00    +0.295 HD
ENDBRANCH   8   9
ENDBRANCH   2   8
BRANCH   1  11
ATOM     11  O   UNL     1       9.977   3.954  -8.665  0.00  0.00    -0.425 OA
BRANCH  11  13
ATOM     12  O   UNL     1       9.186   4.173  -7.140  0.00  0.00    -0.251 OA
ATOM     13  C   UNL     1       9.374   3.611  -7.945  0.00  0.00    +0.309 C 
ATOM     14  C   UNL     1       8.959   2.705  -8.031  0.00  0.00    +0.136 C 
ENDBRANCH  11  13
ENDBRANCH   1  11
TORSDOF 4
ENDMDL
MODEL 7
REMARK VINA RESULT:      -3.5      1.784      2.945
REMARK  Name = 2244
REMARK  5 active torsions:
REMARK  status: ('A' for Active; 'I' for Inactive)
REMARK    1  A    between atoms: O_1  and  C_5
REMARK    2  A    between atoms: O_1  and  C_12
REMARK    3  A    between atoms: O_2  and  C_11
REMARK    4  A    between atoms: C_6  and  C_11
REMARK    5  A    between atoms: C_12  and  C_13
REMARK                            x       y       z     vdW  Elec       q    Type
REMARK                         _______ _______ _______ _____ _____    ______ ____
ROOT
ATOM      1  C   UNL     1       9.018   5.259  -9.386  0.00  0.00    +0.146 A 
ATOM      2  C   UNL     1       8.865   4.745  -8.542  0.00  0.00    +0.101 A 
ATOM      3  C   UNL     1       9.800   5.041  -9.969  0.00  0.00    +0.047 A 
ATOM      4  C   UNL     1       9.494   4.013  -8.281  0.00  0.00    +0.018 A 
ATOM      5  C   UNL     1      10.430   4.309  -9.708  0.00  0.00    +0.004 A 
ATOM      6  C   UNL     1      10.276   3.795  -8.864  0.00  0.00    +0.001 A 
ENDROOT
BRANCH   2   8
ATOM      7  O   UNL     1       7.214   4.484  -8.088  0.00  0.00    -0.245 OA
ATOM      8  C   UNL     1       8.082   4.963  -7.959  0.00  0.00    +0.340 C 
BRANCH   8   9
ATOM      9  O   UNL     1       8.168   5.660  -7.247  0.00  0.00    -0.477 OA
ATOM     10  H   UNL     1       8.651   5.649  -6.859  0.00  0.00    +0.295 HD
ENDBRANCH   8   9
ENDBRANCH   2   8
BRANCH   1  11
ATOM     11  O   UNL     1       8.389   5.991  -9.647  0.00  0.00    -0.425 OA
BRANCH  11  13
ATOM     12  O   UNL     1       9.093   7.196 -10.673  0.00  0.00    -0.251 OA
ATOM     13  C   UNL     1       8.470   6.424 -10.545  0.00  0.00    +0.309 C 
ATOM     14  C   UNL     1       7.929   6.085 -11.314  0.00  0.00    +0.136 C 
ENDBRANCH  11  13
ENDBRANCH   1  11
TORSDOF 4
ENDMDL
MODEL 8
REMARK VINA RESULT:      -3.3      5.418      6.838
REMARK  Name = 2244
REMARK  5 active torsions:
REMARK  status: ('A' for Active; 'I' for Inactive)
REMARK    1  A    between atoms: O_1  and  C_5
REMARK    2  A    between atoms: O_1  and  C_12
REMARK    3  A    between atoms: O_2  and  C_11
REMARK    4  A    between atoms: C_6  and  C_11
REMARK    5  A    between atoms: C_12  and  C_13
REMARK                            x       y       z     vdW  Elec       q    Type
REMARK                         _______ _______ _______ _____ _____    ______ ____
ROOT
ATOM      1  C   UNL     1       5.917   7.022  -5.071  0.00  0.00    +0.146 A 
ATOM      2  C   UNL     1       6.764   6.767  -5.536  0.00  0.00    +0.101 A 
ATOM      3  C   UNL     1       5.057   7.056  -5.581  0.00  0.00    +0.047 A 
ATOM      4  C   UNL     1       6.752   6.546  -6.511  0.00  0.00    +0.018 A 
ATOM      5  C   UNL     1       5.045   6.834  -6.556  0.00  0.00    +0.004 A 
ATOM      6  C   UNL     1       5.893   6.579  -7.021  0.00  0.00    +0.001 A 
ENDROOT
BRANCH   2   8
ATOM      7  O   UNL     1       7.899   5.890  -4.564  0.00  0.00    -0.245 OA
ATOM      8  C   UNL     1       7.624   6.734  -5.026  0.00  0.00    +0.340 C 
BRANCH   8   9
ATOM      9  O   UNL     1       8.208   7.544  -4.977  0.00  0.00    -0.477 OA
ATOM     10  H   UNL     1       8.579   7.629  -4.487  0.00  0.00    +0.295 HD
ENDBRANCH   8   9
ENDBRANCH   2   8
BRANCH   1  11
ATOM     11  O   UNL     1       5.928   7.244  -4.095  0.00  0.00    -0.425 OA
BRANCH  11  13
ATOM     12  O   UNL     1       4.818   6.220  -3.249  0.00  0.00    -0.251 OA
ATOM     13  C   UNL     1       5.100   7.131  -3.547  0.00  0.00    +0.309 C 
ATOM     14  C   UNL     1       4.553   7.931  -3.297  0.00  0.00    +0.136 C 
ENDBRANCH  11  13
ENDBRANCH   1  11
TORSDOF 4
ENDMDL
MODEL 9
REMARK VINA RESULT:      -3.2      6.916      7.874
REMARK  Name = 2244
REMARK  5 active torsions:
REMARK  status: ('A' for Active; 'I' for Inactive)
REMARK    1  A    between atoms: O_1  and  C_5
REMARK    2  A    between atoms: O_1  and  C_12
REMARK    3  A    between atoms: O_2  and  C_11
REMARK    4  A    between atoms: C_6  and  C_11
REMARK    5  A    between atoms: C_12  and  C_13
REMARK                            x       y       z     vdW  Elec       q    Type
REMARK                         _______ _______ _______ _____ _____    ______ ____
ROOT
ATOM      1  C   UNL     1       6.942   6.116  -2.949  0.00  0.00    +0.146 A 
ATOM      2  C   UNL     1       6.621   6.317  -2.023  0.00  0.00    +0.101 A 
ATOM      3  C   UNL     1       6.839   5.195  -3.325  0.00  0.00    +0.047 A 
ATOM      4  C   UNL     1       6.197   5.597  -1.473  0.00  0.00    +0.018 A 
ATOM      5  C   UNL     1       6.415   4.475  -2.775  0.00  0.00    +0.004 A 
ATOM      6  C   UNL     1       6.095   4.676  -1.850  0.00  0.00    +0.001 A 
ENDROOT
BRANCH   2   8
ATOM      7  O   UNL     1       6.025   7.931  -1.823  0.00  0.00    -0.245 OA
ATOM      8  C   UNL     1       6.724   7.238  -1.647  0.00  0.00    +0.340 C 
BRANCH   8   9
ATOM      9  O   UNL     1       7.525   7.466  -1.094  0.00  0.00    -0.477 OA
ATOM     10  H   UNL     1       8.063   7.606  -1.371  0.00  0.00    +0.295 HD
ENDBRANCH   8   9
ENDBRANCH   2   8
BRANCH   1  11
ATOM     11  O   UNL     1       7.365   6.837  -3.498  0.00  0.00    -0.425 OA
BRANCH  11  13
ATOM     12  O   UNL     1       8.918   6.381  -4.115  0.00  0.00    -0.251 OA
ATOM     13  C   UNL     1       7.954   6.596  -4.270  0.00  0.00    +0.309 C 
ATOM     14  C   UNL     1       7.578   6.570  -5.196  0.00  0.00    +0.136 C 
ENDBRANCH  11  13
ENDBRANCH   1  11
TORSDOF 4
ENDMDL
