MODEL 1
REMARK VINA RESULT:      -8.4      0.000      0.000
REMARK  Name = 16142
REMARK  7 active torsions:
REMARK  status: ('A' for Active; 'I' for Inactive)
REMARK    1  A    between atoms: O_1  and  C_10
REMARK    2  A    between atoms: O_7  and  C_30
REMARK    3  A    between atoms: O_8  and  C_34
REMARK    4  A    between atoms: C_13  and  C_25
REMARK    5  A    between atoms: C_14  and  C_28
REMARK    6  A    between atoms: C_18  and  C_29
REMARK    7  A    between atoms: C_37  and  C_38
REMARK                            x       y       z     vdW  Elec       q    Type
REMARK                         _______ _______ _______ _____ _____    ______ ____
ROOT
ATOM      1  O   UNL     1       2.170  -0.587  -5.003  0.00  0.00    -0.337 OA
ATOM      2  O   UNL     1       0.038  -0.366  -4.782  0.00  0.00    -0.341 OA
ATOM      3  O   UNL     1       0.036  -1.501  -3.240  0.00  0.00    -0.343 OA
ATOM      4  C   UNL     1       1.982   2.620  -9.312  0.00  0.00    +0.075 C 
ATOM      5  C   UNL     1       1.501   2.130  -8.529  0.00  0.00    +0.025 C 
ATOM      6  C   UNL     1       2.015   1.563  -7.885  0.00  0.00    +0.008 C 
ATOM      7  C   UNL     1       3.012   2.518  -9.425  0.00  0.00    +0.004 C 
ATOM      8  C   UNL     1       1.539   1.098  -7.138  0.00  0.00    +0.034 C 
ATOM      9  C   UNL     1       0.550   1.201  -7.035  0.00  0.00    +0.005 C 
ATOM     10  C   UNL     1       3.046   1.447  -7.979  0.00  0.00    +0.005 C 
ATOM     11  C   UNL     1       3.548   1.928  -8.754  0.00  0.00    +0.010 C 
ATOM     12  C   UNL     1       3.297   3.074 -10.250  0.00  0.00    +0.027 C 
ATOM     13  C   UNL     1       0.511   2.232  -8.426  0.00  0.00    +0.007 C 
ATOM     14  C   UNL     1       1.638   3.239 -10.068  0.00  0.00    +0.036 C 
ATOM     15  C   UNL     1       0.036   1.767  -7.679  0.00  0.00    +0.005 C 
ATOM     16  C   UNL     1       2.450   3.519 -10.647  0.00  0.00    +0.011 C 
ATOM     17  C   UNL     1       2.087   0.512  -6.475  0.00  0.00    +0.049 C 
ATOM     18  C   UNL     1       0.040   0.723  -6.262  0.00  0.00    +0.038 C 
ATOM     19  C   UNL     1       4.002   2.420  -9.534  0.00  0.00    +0.014 C 
ATOM     20  C   UNL     1       1.599   0.025  -5.694  0.00  0.00    +0.152 C 
ATOM     21  C   UNL     1       0.569   0.131  -5.587  0.00  0.00    +0.151 C 
ATOM     22  C   UNL     1       1.662  -1.094  -4.190  0.00  0.00    +0.247 C 
ATOM     23  C   UNL     1       0.588  -0.983  -4.079  0.00  0.00    +0.314 C 
ATOM     24  C   UNL     1       2.257  -1.731  -3.471  0.00  0.00    +0.181 C 
ATOM     25  C   UNL     1       1.728  -2.259  -2.624  0.00  0.00    +0.068 C 
ATOM     26  C   UNL     1       0.609  -2.144  -2.508  0.00  0.00    +0.121 C 
ATOM     27  C   UNL     1       0.130  -2.607  -1.762  0.00  0.00    +0.038 C 
ENDROOT
BRANCH  12  30
ATOM     28  O   UNL     1       5.598   2.896 -11.419  0.00  0.00    -0.457 OA
ATOM     29  O   UNL     1       6.547   4.290 -10.841  0.00  0.00    -0.246 OA
ATOM     30  C   UNL     1       4.228   3.167 -10.604  0.00  0.00    -0.022 C 
ATOM     31  C   UNL     1       4.676   2.551 -11.251  0.00  0.00    +0.264 C 
ATOM     32  C   UNL     1       4.874   3.894 -10.371  0.00  0.00    +0.094 C 
ATOM     33  C   UNL     1       5.722   3.726 -10.875  0.00  0.00    +0.332 C 
ENDBRANCH  12  30
BRANCH   4  34
ATOM     34  O   UNL     1       0.993   2.717  -9.203  0.00  0.00    -0.388 OA
ATOM     35  H   UNL     1       0.728   3.275  -9.257  0.00  0.00    +0.210 HD
ENDBRANCH   4  34
BRANCH   8  37
ATOM     36  O   UNL     1       2.962   1.130  -6.151  0.00  0.00    -0.300 OA
ATOM     37  C   UNL     1       2.476   0.799  -6.959  0.00  0.00    +0.230 C 
ENDBRANCH   8  37
BRANCH  22  38
ATOM     38  O   UNL     1       2.651  -1.196  -4.293  0.00  0.00    -0.359 OA
ATOM     39  H   UNL     1       3.008  -0.695  -4.374  0.00  0.00    +0.213 HD
ENDBRANCH  22  38
BRANCH  24  40
ATOM     40  O   UNL     1       3.246  -1.826  -3.583  0.00  0.00    -0.386 OA
ATOM     41  H   UNL     1       3.496  -2.387  -3.669  0.00  0.00    +0.210 HD
ENDBRANCH  24  40
TORSDOF 5
ENDMDL
MODEL 2
REMARK VINA RESULT:      -8.1     10.012     13.954
REMARK  Name = 16142
REMARK  7 active torsions:
REMARK  status: ('A' for Active; 'I' for Inactive)
REMARK    1  A    between atoms: O_1  and  C_10
REMARK    2  A    between atoms: O_7  and  C_30
REMARK    3  A    between atoms: O_8  and  C_34
REMARK    4  A    between atoms: C_13  and  C_25
REMARK    5  A    between atoms: C_14  and  C_28
REMARK    6  A    between atoms: C_18  and  C_29
REMARK    7  A    between atoms: C_37  and  C_38
REMARK                            x       y       z     vdW  Elec       q    Type
REMARK                         _______ _______ _______ _____ _____    ______ ____
ROOT
ATOM      1  O   UNL     1      -3.714  -6.058   5.094  0.00  0.00    -0.337 OA
ATOM      2  O   UNL     1      -3.790  -5.574   7.192  0.00  0.00    -0.341 OA
ATOM      3  O   UNL     1      -3.830  -7.429   7.665  0.00  0.00    -0.343 OA
ATOM      4  C   UNL     1      -3.608  -0.806   3.959  0.00  0.00    +0.075 C 
ATOM      5  C   UNL     1      -3.644  -1.579   4.657  0.00  0.00    +0.025 C 
ATOM      6  C   UNL     1      -3.644  -2.535   4.364  0.00  0.00    +0.008 C 
ATOM      7  C   UNL     1      -3.571  -1.032   2.943  0.00  0.00    +0.004 C 
ATOM      8  C   UNL     1      -3.679  -3.267   5.044  0.00  0.00    +0.034 C 
ATOM      9  C   UNL     1      -3.714  -3.042   6.018  0.00  0.00    +0.005 C 
ATOM     10  C   UNL     1      -3.608  -2.785   3.353  0.00  0.00    +0.005 C 
ATOM     11  C   UNL     1      -3.571  -2.028   2.638  0.00  0.00    +0.010 C 
ATOM     12  C   UNL     1      -3.540  -0.140   2.421  0.00  0.00    +0.027 C 
ATOM     13  C   UNL     1      -3.679  -1.355   5.631  0.00  0.00    +0.007 C 
ATOM     14  C   UNL     1      -3.599   0.225   4.056  0.00  0.00    +0.036 C 
ATOM     15  C   UNL     1      -3.714  -2.086   6.311  0.00  0.00    +0.005 C 
ATOM     16  C   UNL     1      -3.557   0.636   3.107  0.00  0.00    +0.011 C 
ATOM     17  C   UNL     1      -3.679  -4.258   4.724  0.00  0.00    +0.049 C 
ATOM     18  C   UNL     1      -3.751  -3.794   6.739  0.00  0.00    +0.038 C 
ATOM     19  C   UNL     1      -3.536  -1.250   1.967  0.00  0.00    +0.014 C 
ATOM     20  C   UNL     1      -3.715  -5.025   5.427  0.00  0.00    +0.152 C 
ATOM     21  C   UNL     1      -3.752  -4.792   6.441  0.00  0.00    +0.151 C 
ATOM     22  C   UNL     1      -3.752  -6.858   5.826  0.00  0.00    +0.247 C 
ATOM     23  C   UNL     1      -3.790  -6.614   6.883  0.00  0.00    +0.314 C 
ATOM     24  C   UNL     1      -3.752  -7.933   5.478  0.00  0.00    +0.181 C 
ATOM     25  C   UNL     1      -3.791  -8.766   6.241  0.00  0.00    +0.068 C 
ATOM     26  C   UNL     1      -3.831  -8.512   7.342  0.00  0.00    +0.121 C 
ATOM     27  C   UNL     1      -3.866  -9.241   8.026  0.00  0.00    +0.038 C 
ENDROOT
BRANCH  12  30
ATOM     28  O   UNL     1      -2.964  -0.043  -0.100  0.00  0.00    -0.457 OA
ATOM     29  O   UNL     1      -4.445   0.519  -0.917  0.00  0.00    -0.246 OA
ATOM     30  C   UNL     1      -3.500  -0.042   1.426  0.00  0.00    -0.022 C 
ATOM     31  C   UNL     1      -2.707  -0.231   0.848  0.00  0.00    +0.264 C 
ATOM     32  C   UNL     1      -4.248   0.262   0.836  0.00  0.00    +0.094 C 
ATOM     33  C   UNL     1      -3.917   0.261  -0.108  0.00  0.00    +0.332 C 
ENDBRANCH  12  30
BRANCH   4  34
ATOM     34  O   UNL     1      -3.643  -0.589   4.935  0.00  0.00    -0.388 OA
ATOM     35  H   UNL     1      -3.787  -1.031   5.346  0.00  0.00    +0.210 HD
ENDBRANCH   4  34
BRANCH   8  37
ATOM     36  O   UNL     1      -2.831  -4.330   3.972  0.00  0.00    -0.300 OA
ATOM     37  C   UNL     1      -3.653  -3.811   4.207  0.00  0.00    +0.230 C 
ENDBRANCH   8  37
BRANCH  22  38
ATOM     38  O   UNL     1      -3.717  -7.082   4.852  0.00  0.00    -0.359 OA
ATOM     39  H   UNL     1      -3.965  -7.612   4.647  0.00  0.00    +0.213 HD
ENDBRANCH  22  38
BRANCH  24  40
ATOM     40  O   UNL     1      -3.716  -8.146   4.502  0.00  0.00    -0.386 OA
ATOM     41  H   UNL     1      -3.820  -8.726   4.307  0.00  0.00    +0.210 HD
ENDBRANCH  24  40
TORSDOF 5
ENDMDL
MODEL 3
REMARK VINA RESULT:      -7.9     10.624     13.898
REMARK  Name = 16142
REMARK  7 active torsions:
REMARK  status: ('A' for Active; 'I' for Inactive)
REMARK    1  A    between atoms: O_1  and  C_10
REMARK    2  A    between atoms: O_7  and  C_30
REMARK    3  A    between atoms: O_8  and  C_34
REMARK    4  A    between atoms: C_13  and  C_25
REMARK    5  A    between atoms: C_14  and  C_28
REMARK    6  A    between atoms: C_18  and  C_29
REMARK    7  A    between atoms: C_37  and  C_38
REMARK                            x       y       z     vdW  Elec       q    Type
REMARK                         _______ _______ _______ _____ _____    ______ ____
ROOT
ATOM      1  O   UNL     1      -3.995  -5.760   6.115  0.00  0.00    -0.337 OA
ATOM      2  O   UNL     1      -2.598  -7.253   5.434  0.00  0.00    -0.341 OA
ATOM      3  O   UNL     1      -3.114  -8.443   6.842  0.00  0.00    -0.343 OA
ATOM      4  C   UNL     1      -2.420  -2.555   2.099  0.00  0.00    +0.075 C 
ATOM      5  C   UNL     1      -2.351  -3.457   2.616  0.00  0.00    +0.025 C 
ATOM      6  C   UNL     1      -2.921  -3.635   3.417  0.00  0.00    +0.008 C 
ATOM      7  C   UNL     1      -3.093  -1.829   2.422  0.00  0.00    +0.004 C 
ATOM      8  C   UNL     1      -2.844  -4.506   3.903  0.00  0.00    +0.034 C 
ATOM      9  C   UNL     1      -2.195  -5.199   3.587  0.00  0.00    +0.005 C 
ATOM     10  C   UNL     1      -3.601  -2.924   3.758  0.00  0.00    +0.005 C 
ATOM     11  C   UNL     1      -3.688  -2.014   3.258  0.00  0.00    +0.010 C 
ATOM     12  C   UNL     1      -3.013  -1.017   1.787  0.00  0.00    +0.027 C 
ATOM     13  C   UNL     1      -1.702  -4.150   2.300  0.00  0.00    +0.007 C 
ATOM     14  C   UNL     1      -1.929  -2.185   1.266  0.00  0.00    +0.036 C 
ATOM     15  C   UNL     1      -1.625  -5.021   2.785  0.00  0.00    +0.005 C 
ATOM     16  C   UNL     1      -2.295  -1.236   1.073  0.00  0.00    +0.011 C 
ATOM     17  C   UNL     1      -3.444  -4.677   4.736  0.00  0.00    +0.049 C 
ATOM     18  C   UNL     1      -2.103  -6.110   4.082  0.00  0.00    +0.038 C 
ATOM     19  C   UNL     1      -3.740  -1.132   2.733  0.00  0.00    +0.014 C 
ATOM     20  C   UNL     1      -3.369  -5.581   5.247  0.00  0.00    +0.152 C 
ATOM     21  C   UNL     1      -2.694  -6.303   4.919  0.00  0.00    +0.151 C 
ATOM     22  C   UNL     1      -3.917  -6.702   6.648  0.00  0.00    +0.247 C 
ATOM     23  C   UNL     1      -3.213  -7.454   6.305  0.00  0.00    +0.314 C 
ATOM     24  C   UNL     1      -4.569  -6.888   7.552  0.00  0.00    +0.181 C 
ATOM     25  C   UNL     1      -4.488  -7.869   8.107  0.00  0.00    +0.068 C 
ATOM     26  C   UNL     1      -3.755  -8.652   7.749  0.00  0.00    +0.121 C 
ATOM     27  C   UNL     1      -3.674  -9.524   8.232  0.00  0.00    +0.038 C 
ENDROOT
BRANCH  12  30
ATOM     28  O   UNL     1      -4.138   1.233   2.391  0.00  0.00    -0.457 OA
ATOM     29  O   UNL     1      -5.214   1.622   1.024  0.00  0.00    -0.246 OA
ATOM     30  C   UNL     1      -3.537  -0.167   1.849  0.00  0.00    -0.022 C 
ATOM     31  C   UNL     1      -3.512   0.484   2.607  0.00  0.00    +0.264 C 
ATOM     32  C   UNL     1      -4.177   0.179   1.164  0.00  0.00    +0.094 C 
ATOM     33  C   UNL     1      -4.549   1.046   1.499  0.00  0.00    +0.332 C 
ENDBRANCH  12  30
BRANCH   4  34
ATOM     34  O   UNL     1      -1.774  -3.253   1.789  0.00  0.00    -0.388 OA
ATOM     35  H   UNL     1      -1.208  -3.285   2.040  0.00  0.00    +0.210 HD
ENDBRANCH   4  34
BRANCH   8  37
ATOM     36  O   UNL     1      -4.495  -4.389   4.413  0.00  0.00    -0.300 OA
ATOM     37  C   UNL     1      -3.550  -4.063   4.454  0.00  0.00    +0.230 C 
ENDBRANCH   8  37
BRANCH  22  38
ATOM     38  O   UNL     1      -4.565  -6.009   6.964  0.00  0.00    -0.359 OA
ATOM     39  H   UNL     1      -4.981  -5.771   6.570  0.00  0.00    +0.213 HD
ENDBRANCH  22  38
BRANCH  24  40
ATOM     40  O   UNL     1      -5.214  -6.188   7.859  0.00  0.00    -0.386 OA
ATOM     41  H   UNL     1      -5.823  -6.303   7.852  0.00  0.00    +0.210 HD
ENDBRANCH  24  40
TORSDOF 5
ENDMDL
MODEL 4
REMARK VINA RESULT:      -7.9      5.652     10.506
REMARK  Name = 16142
REMARK  7 active torsions:
REMARK  status: ('A' for Active; 'I' for Inactive)
REMARK    1  A    between atoms: O_1  and  C_10
REMARK    2  A    between atoms: O_7  and  C_30
REMARK    3  A    between atoms: O_8  and  C_34
REMARK    4  A    between atoms: C_13  and  C_25
REMARK    5  A    between atoms: C_14  and  C_28
REMARK    6  A    between atoms: C_18  and  C_29
REMARK    7  A    between atoms: C_37  and  C_38
REMARK                            x       y       z     vdW  Elec       q    Type
REMARK                         _______ _______ _______ _____ _____    ______ ____
ROOT
ATOM      1  O   UNL     1       1.370  -2.138  -2.434  0.00  0.00    -0.337 OA
ATOM      2  O   UNL     1       1.821  -4.240  -2.286  0.00  0.00    -0.341 OA
ATOM      3  O   UNL     1       3.101  -4.111  -3.704  0.00  0.00    -0.343 OA
ATOM      4  C   UNL     1      -2.185  -2.693   1.558  0.00  0.00    +0.075 C 
ATOM      5  C   UNL     1      -1.474  -3.105   0.917  0.00  0.00    +0.025 C 
ATOM      6  C   UNL     1      -1.003  -2.539   0.241  0.00  0.00    +0.008 C 
ATOM      7  C   UNL     1      -2.408  -1.678   1.493  0.00  0.00    +0.004 C 
ATOM      8  C   UNL     1      -0.324  -2.948  -0.368  0.00  0.00    +0.034 C 
ATOM      9  C   UNL     1      -0.114  -3.924  -0.299  0.00  0.00    +0.005 C 
ATOM     10  C   UNL     1      -1.211  -1.521   0.157  0.00  0.00    +0.005 C 
ATOM     11  C   UNL     1      -1.918  -1.088   0.788  0.00  0.00    +0.010 C 
ATOM     12  C   UNL     1      -3.128  -1.465   2.204  0.00  0.00    +0.027 C 
ATOM     13  C   UNL     1      -1.265  -4.080   0.986  0.00  0.00    +0.007 C 
ATOM     14  C   UNL     1      -2.770  -3.099   2.310  0.00  0.00    +0.036 C 
ATOM     15  C   UNL     1      -0.585  -4.490   0.377  0.00  0.00    +0.005 C 
ATOM     16  C   UNL     1      -3.352  -2.341   2.709  0.00  0.00    +0.011 C 
ATOM     17  C   UNL     1       0.158  -2.346  -1.067  0.00  0.00    +0.049 C 
ATOM     18  C   UNL     1       0.591  -4.364  -0.926  0.00  0.00    +0.038 C 
ATOM     19  C   UNL     1      -2.622  -0.702   1.430  0.00  0.00    +0.014 C 
ATOM     20  C   UNL     1       0.867  -2.765  -1.705  0.00  0.00    +0.152 C 
ATOM     21  C   UNL     1       1.086  -3.781  -1.634  0.00  0.00    +0.151 C 
ATOM     22  C   UNL     1       2.109  -2.574  -3.098  0.00  0.00    +0.247 C 
ATOM     23  C   UNL     1       2.336  -3.633  -3.024  0.00  0.00    +0.314 C 
ATOM     24  C   UNL     1       2.632  -1.921  -3.858  0.00  0.00    +0.181 C 
ATOM     25  C   UNL     1       3.401  -2.375  -4.549  0.00  0.00    +0.068 C 
ATOM     26  C   UNL     1       3.637  -3.479  -4.471  0.00  0.00    +0.121 C 
ATOM     27  C   UNL     1       4.317  -3.891  -5.078  0.00  0.00    +0.038 C 
ENDROOT
BRANCH  12  30
ATOM     28  O   UNL     1      -3.863   0.875   3.028  0.00  0.00    -0.457 OA
ATOM     29  O   UNL     1      -5.169   1.390   1.930  0.00  0.00    -0.246 OA
ATOM     30  C   UNL     1      -3.538  -0.569   2.376  0.00  0.00    -0.022 C 
ATOM     31  C   UNL     1      -3.283   0.065   3.106  0.00  0.00    +0.264 C 
ATOM     32  C   UNL     1      -4.276  -0.150   1.846  0.00  0.00    +0.094 C 
ATOM     33  C   UNL     1      -4.477   0.743   2.250  0.00  0.00    +0.332 C 
ENDBRANCH  12  30
BRANCH   4  34
ATOM     34  O   UNL     1      -1.970  -3.668   1.621  0.00  0.00    -0.388 OA
ATOM     35  H   UNL     1      -1.551  -3.918   1.238  0.00  0.00    +0.210 HD
ENDBRANCH   4  34
BRANCH   8  37
ATOM     36  O   UNL     1      -0.653  -1.764  -1.589  0.00  0.00    -0.300 OA
ATOM     37  C   UNL     1      -0.293  -2.001  -0.686  0.00  0.00    +0.230 C 
ENDBRANCH   8  37
BRANCH  22  38
ATOM     38  O   UNL     1       1.899  -1.599  -3.166  0.00  0.00    -0.359 OA
ATOM     39  H   UNL     1       1.370  -1.413  -3.432  0.00  0.00    +0.213 HD
ENDBRANCH  22  38
BRANCH  24  40
ATOM     40  O   UNL     1       2.415  -0.946  -3.917  0.00  0.00    -0.386 OA
ATOM     41  H   UNL     1       1.882  -0.733  -3.682  0.00  0.00    +0.210 HD
ENDBRANCH  24  40
TORSDOF 5
ENDMDL
MODEL 5
REMARK VINA RESULT:      -7.7      3.477      7.065
REMARK  Name = 16142
REMARK  7 active torsions:
REMARK  status: ('A' for Active; 'I' for Inactive)
REMARK    1  A    between atoms: O_1  and  C_10
REMARK    2  A    between atoms: O_7  and  C_30
REMARK    3  A    between atoms: O_8  and  C_34
REMARK    4  A    between atoms: C_13  and  C_25
REMARK    5  A    between atoms: C_14  and  C_28
REMARK    6  A    between atoms: C_18  and  C_29
REMARK    7  A    between atoms: C_37  and  C_38
REMARK                            x       y       z     vdW  Elec       q    Type
REMARK                         _______ _______ _______ _____ _____    ______ ____
ROOT
ATOM      1  O   UNL     1       7.273   3.754  -7.319  0.00  0.00    -0.337 OA
ATOM      2  O   UNL     1       8.312   4.506  -9.051  0.00  0.00    -0.341 OA
ATOM      3  O   UNL     1       9.900   4.804  -8.024  0.00  0.00    -0.343 OA
ATOM      4  C   UNL     1       2.909   2.987 -10.360  0.00  0.00    +0.075 C 
ATOM      5  C   UNL     1       3.898   3.298 -10.262  0.00  0.00    +0.025 C 
ATOM      6  C   UNL     1       4.366   3.251  -9.379  0.00  0.00    +0.008 C 
ATOM      7  C   UNL     1       2.400   2.622  -9.528  0.00  0.00    +0.004 C 
ATOM      8  C   UNL     1       5.316   3.553  -9.300  0.00  0.00    +0.034 C 
ATOM      9  C   UNL     1       5.798   3.902 -10.103  0.00  0.00    +0.005 C 
ATOM     10  C   UNL     1       3.877   2.890  -8.533  0.00  0.00    +0.005 C 
ATOM     11  C   UNL     1       2.887   2.573  -8.608  0.00  0.00    +0.010 C 
ATOM     12  C   UNL     1       1.443   2.368  -9.827  0.00  0.00    +0.027 C 
ATOM     13  C   UNL     1       4.381   3.647 -11.065  0.00  0.00    +0.007 C 
ATOM     14  C   UNL     1       2.261   2.956 -11.168  0.00  0.00    +0.036 C 
ATOM     15  C   UNL     1       5.331   3.949 -10.986  0.00  0.00    +0.005 C 
ATOM     16  C   UNL     1       1.356   2.574 -10.839  0.00  0.00    +0.011 C 
ATOM     17  C   UNL     1       5.789   3.498  -8.374  0.00  0.00    +0.049 C 
ATOM     18  C   UNL     1       6.788   4.221 -10.036  0.00  0.00    +0.038 C 
ATOM     19  C   UNL     1       1.912   2.272  -8.728  0.00  0.00    +0.014 C 
ATOM     20  C   UNL     1       6.779   3.811  -8.284  0.00  0.00    +0.152 C 
ATOM     21  C   UNL     1       7.282   4.175  -9.120  0.00  0.00    +0.151 C 
ATOM     22  C   UNL     1       8.303   4.080  -7.225  0.00  0.00    +0.247 C 
ATOM     23  C   UNL     1       8.827   4.459  -8.097  0.00  0.00    +0.314 C 
ATOM     24  C   UNL     1       8.818   4.020  -6.220  0.00  0.00    +0.181 C 
ATOM     25  C   UNL     1       9.891   4.359  -6.121  0.00  0.00    +0.068 C 
ATOM     26  C   UNL     1      10.436   4.754  -7.030  0.00  0.00    +0.121 C 
ATOM     27  C   UNL     1      11.386   5.057  -6.954  0.00  0.00    +0.038 C 
ENDROOT
BRANCH  12  30
ATOM     28  O   UNL     1      -0.498   1.869  -8.191  0.00  0.00    -0.457 OA
ATOM     29  O   UNL     1      -0.703   0.098  -8.204  0.00  0.00    -0.246 OA
ATOM     30  C   UNL     1       0.725   1.991  -9.243  0.00  0.00    -0.022 C 
ATOM     31  C   UNL     1       0.111   2.514  -8.652  0.00  0.00    +0.264 C 
ATOM     32  C   UNL     1       0.495   1.022  -9.147  0.00  0.00    +0.094 C 
ATOM     33  C   UNL     1      -0.261   0.947  -8.497  0.00  0.00    +0.332 C 
ENDBRANCH  12  30
BRANCH   4  34
ATOM     34  O   UNL     1       3.398   3.337 -11.159  0.00  0.00    -0.388 OA
ATOM     35  H   UNL     1       3.932   3.643 -11.086  0.00  0.00    +0.210 HD
ENDBRANCH   4  34
BRANCH   8  37
ATOM     36  O   UNL     1       5.111   3.963  -7.630  0.00  0.00    -0.300 OA
ATOM     37  C   UNL     1       5.143   3.276  -8.355  0.00  0.00    +0.230 C 
ENDBRANCH   8  37
BRANCH  22  38
ATOM     38  O   UNL     1       7.821   3.730  -6.421  0.00  0.00    -0.359 OA
ATOM     39  H   UNL     1       7.848   4.040  -5.885  0.00  0.00    +0.213 HD
ENDBRANCH  22  38
BRANCH  24  40
ATOM     40  O   UNL     1       8.326   3.669  -5.423  0.00  0.00    -0.386 OA
ATOM     41  H   UNL     1       7.813   3.329  -5.500  0.00  0.00    +0.210 HD
ENDBRANCH  24  40
TORSDOF 5
ENDMDL
MODEL 6
REMARK VINA RESULT:      -7.6     10.013     15.311
REMARK  Name = 16142
REMARK  7 active torsions:
REMARK  status: ('A' for Active; 'I' for Inactive)
REMARK    1  A    between atoms: O_1  and  C_10
REMARK    2  A    between atoms: O_7  and  C_30
REMARK    3  A    between atoms: O_8  and  C_34
REMARK    4  A    between atoms: C_13  and  C_25
REMARK    5  A    between atoms: C_14  and  C_28
REMARK    6  A    between atoms: C_18  and  C_29
REMARK    7  A    between atoms: C_37  and  C_38
REMARK                            x       y       z     vdW  Elec       q    Type
REMARK                         _______ _______ _______ _____ _____    ______ ____
ROOT
ATOM      1  O   UNL     1      -3.929  -1.497   2.909  0.00  0.00    -0.337 OA
ATOM      2  O   UNL     1      -2.526  -1.666   1.282  0.00  0.00    -0.341 OA
ATOM      3  O   UNL     1      -3.088   0.018   0.564  0.00  0.00    -0.343 OA
ATOM      4  C   UNL     1      -2.222  -6.239   4.776  0.00  0.00    +0.075 C 
ATOM      5  C   UNL     1      -2.174  -5.476   4.068  0.00  0.00    +0.025 C 
ATOM      6  C   UNL     1      -2.767  -4.674   4.136  0.00  0.00    +0.008 C 
ATOM      7  C   UNL     1      -2.898  -6.165   5.566  0.00  0.00    +0.004 C 
ATOM      8  C   UNL     1      -2.709  -3.949   3.449  0.00  0.00    +0.034 C 
ATOM      9  C   UNL     1      -2.058  -4.028   2.694  0.00  0.00    +0.005 C 
ATOM     10  C   UNL     1      -3.450  -4.578   4.917  0.00  0.00    +0.005 C 
ATOM     11  C   UNL     1      -3.515  -5.329   5.637  0.00  0.00    +0.010 C 
ATOM     12  C   UNL     1      -2.794  -7.011   6.152  0.00  0.00    +0.027 C 
ATOM     13  C   UNL     1      -1.523  -5.554   3.313  0.00  0.00    +0.007 C 
ATOM     14  C   UNL     1      -1.707  -7.131   4.882  0.00  0.00    +0.036 C 
ATOM     15  C   UNL     1      -1.465  -4.830   2.626  0.00  0.00    +0.005 C 
ATOM     16  C   UNL     1      -2.060  -7.607   5.731  0.00  0.00    +0.011 C 
ATOM     17  C   UNL     1      -3.333  -3.120   3.534  0.00  0.00    +0.049 C 
ATOM     18  C   UNL     1      -1.987  -3.281   1.971  0.00  0.00    +0.038 C 
ATOM     19  C   UNL     1      -3.546  -6.093   6.324  0.00  0.00    +0.014 C 
ATOM     20  C   UNL     1      -3.279  -2.362   2.822  0.00  0.00    +0.152 C 
ATOM     21  C   UNL     1      -2.601  -2.442   2.035  0.00  0.00    +0.151 C 
ATOM     22  C   UNL     1      -3.872  -0.707   2.168  0.00  0.00    +0.247 C 
ATOM     23  C   UNL     1      -3.166  -0.792   1.348  0.00  0.00    +0.314 C 
ATOM     24  C   UNL     1      -4.549   0.193   2.259  0.00  0.00    +0.181 C 
ATOM     25  C   UNL     1      -4.491   1.017   1.487  0.00  0.00    +0.068 C 
ATOM     26  C   UNL     1      -3.755   0.928   0.634  0.00  0.00    +0.121 C 
ATOM     27  C   UNL     1      -3.694   1.650  -0.055  0.00  0.00    +0.038 C 
ENDROOT
BRANCH  12  30
ATOM     28  O   UNL     1      -3.797  -7.254   8.525  0.00  0.00    -0.457 OA
ATOM     29  O   UNL     1      -5.214  -8.319   8.348  0.00  0.00    -0.246 OA
ATOM     30  C   UNL     1      -3.312  -7.217   6.982  0.00  0.00    -0.022 C 
ATOM     31  C   UNL     1      -3.109  -6.882   7.902  0.00  0.00    +0.264 C 
ATOM     32  C   UNL     1      -4.126  -7.797   7.037  0.00  0.00    +0.094 C 
ATOM     33  C   UNL     1      -4.425  -7.819   7.991  0.00  0.00    +0.332 C 
ENDBRANCH  12  30
BRANCH   4  34
ATOM     34  O   UNL     1      -1.574  -6.310   4.018  0.00  0.00    -0.388 OA
ATOM     35  H   UNL     1      -0.975  -6.424   4.132  0.00  0.00    +0.210 HD
ENDBRANCH   4  34
BRANCH   8  37
ATOM     36  O   UNL     1      -3.238  -2.775   4.607  0.00  0.00    -0.300 OA
ATOM     37  C   UNL     1      -3.426  -3.574   4.036  0.00  0.00    +0.230 C 
ENDBRANCH   8  37
BRANCH  22  38
ATOM     38  O   UNL     1      -4.523  -0.629   2.923  0.00  0.00    -0.359 OA
ATOM     39  H   UNL     1      -4.817  -1.133   3.132  0.00  0.00    +0.213 HD
ENDBRANCH  22  38
BRANCH  24  40
ATOM     40  O   UNL     1      -5.197   0.261   3.019  0.00  0.00    -0.386 OA
ATOM     41  H   UNL     1      -5.806   0.285   2.906  0.00  0.00    +0.210 HD
ENDBRANCH  24  40
TORSDOF 5
ENDMDL
MODEL 7
REMARK VINA RESULT:      -7.5      7.348      9.379
REMARK  Name = 16142
REMARK  7 active torsions:
REMARK  status: ('A' for Active; 'I' for Inactive)
REMARK    1  A    between atoms: O_1  and  C_10
REMARK    2  A    between atoms: O_7  and  C_30
REMARK    3  A    between atoms: O_8  and  C_34
REMARK    4  A    between atoms: C_13  and  C_25
REMARK    5  A    between atoms: C_14  and  C_28
REMARK    6  A    between atoms: C_18  and  C_29
REMARK    7  A    between atoms: C_37  and  C_38
REMARK                            x       y       z     vdW  Elec       q    Type
REMARK                         _______ _______ _______ _____ _____    ______ ____
ROOT
ATOM      1  O   UNL     1      -2.155  -0.857  -0.065  0.00  0.00    -0.337 OA
ATOM      2  O   UNL     1      -2.827  -1.797   1.754  0.00  0.00    -0.341 OA
ATOM      3  O   UNL     1      -3.986  -0.323   2.140  0.00  0.00    -0.343 OA
ATOM      4  C   UNL     1       1.037  -5.082  -0.984  0.00  0.00    +0.075 C 
ATOM      5  C   UNL     1       0.335  -4.592  -0.391  0.00  0.00    +0.025 C 
ATOM      6  C   UNL     1      -0.027  -3.698  -0.655  0.00  0.00    +0.008 C 
ATOM      7  C   UNL     1       1.367  -4.634  -1.864  0.00  0.00    +0.004 C 
ATOM      8  C   UNL     1      -0.701  -3.241  -0.075  0.00  0.00    +0.034 C 
ATOM      9  C   UNL     1      -1.013  -3.677   0.769  0.00  0.00    +0.005 C 
ATOM     10  C   UNL     1       0.288  -3.231  -1.531  0.00  0.00    +0.005 C 
ATOM     11  C   UNL     1       0.990  -3.702  -2.140  0.00  0.00    +0.010 C 
ATOM     12  C   UNL     1       2.055  -5.269  -2.306  0.00  0.00    +0.027 C 
ATOM     13  C   UNL     1       0.023  -5.028   0.453  0.00  0.00    +0.007 C 
ATOM     14  C   UNL     1       1.524  -5.991  -0.889  0.00  0.00    +0.036 C 
ATOM     15  C   UNL     1      -0.652  -4.571   1.033  0.00  0.00    +0.005 C 
ATOM     16  C   UNL     1       2.152  -6.107  -1.704  0.00  0.00    +0.011 C 
ATOM     17  C   UNL     1      -1.069  -2.310  -0.363  0.00  0.00    +0.049 C 
ATOM     18  C   UNL     1      -1.715  -3.212   1.383  0.00  0.00    +0.038 C 
ATOM     19  C   UNL     1       1.684  -4.203  -2.710  0.00  0.00    +0.014 C 
ATOM     20  C   UNL     1      -1.771  -1.827   0.235  0.00  0.00    +0.152 C 
ATOM     21  C   UNL     1      -2.097  -2.280   1.114  0.00  0.00    +0.151 C 
ATOM     22  C   UNL     1      -2.886  -0.354   0.558  0.00  0.00    +0.247 C 
ATOM     23  C   UNL     1      -3.225  -0.827   1.474  0.00  0.00    +0.314 C 
ATOM     24  C   UNL     1      -3.285   0.656   0.246  0.00  0.00    +0.181 C 
ATOM     25  C   UNL     1      -4.047   1.181   0.895  0.00  0.00    +0.068 C 
ATOM     26  C   UNL     1      -4.400   0.687   1.849  0.00  0.00    +0.121 C 
ATOM     27  C   UNL     1      -5.074   1.142   2.431  0.00  0.00    +0.038 C 
ENDROOT
BRANCH  12  30
ATOM     28  O   UNL     1       2.905  -5.040  -4.738  0.00  0.00    -0.457 OA
ATOM     29  O   UNL     1       4.524  -4.304  -4.621  0.00  0.00    -0.246 OA
ATOM     30  C   UNL     1       2.541  -5.104  -3.164  0.00  0.00    -0.022 C 
ATOM     31  C   UNL     1       2.203  -5.314  -4.081  0.00  0.00    +0.264 C 
ATOM     32  C   UNL     1       3.452  -4.701  -3.254  0.00  0.00    +0.094 C 
ATOM     33  C   UNL     1       3.676  -4.661  -4.228  0.00  0.00    +0.332 C 
ENDBRANCH  12  30
BRANCH   4  34
ATOM     34  O   UNL     1       0.720  -5.512  -0.139  0.00  0.00    -0.388 OA
ATOM     35  H   UNL     1       0.482  -6.084  -0.152  0.00  0.00    +0.210 HD
ENDBRANCH   4  34
BRANCH   8  37
ATOM     36  O   UNL     1      -0.154  -1.693  -0.628  0.00  0.00    -0.300 OA
ATOM     37  C   UNL     1      -0.613  -2.564  -0.805  0.00  0.00    +0.230 C 
ENDBRANCH   8  37
BRANCH  22  38
ATOM     38  O   UNL     1      -2.574   0.082  -0.286  0.00  0.00    -0.359 OA
ATOM     39  H   UNL     1      -2.449   0.690  -0.293  0.00  0.00    +0.213 HD
ENDBRANCH  22  38
BRANCH  24  40
ATOM     40  O   UNL     1      -2.966   1.083  -0.601  0.00  0.00    -0.386 OA
ATOM     41  H   UNL     1      -2.809   0.731  -1.086  0.00  0.00    +0.210 HD
ENDBRANCH  24  40
TORSDOF 5
ENDMDL
MODEL 8
REMARK VINA RESULT:      -7.4     11.098     15.519
REMARK  Name = 16142
REMARK  7 active torsions:
REMARK  status: ('A' for Active; 'I' for Inactive)
REMARK    1  A    between atoms: O_1  and  C_10
REMARK    2  A    between atoms: O_7  and  C_30
REMARK    3  A    between atoms: O_8  and  C_34
REMARK    4  A    between atoms: C_13  and  C_25
REMARK    5  A    between atoms: C_14  and  C_28
REMARK    6  A    between atoms: C_18  and  C_29
REMARK    7  A    between atoms: C_37  and  C_38
REMARK                            x       y       z     vdW  Elec       q    Type
REMARK                         _______ _______ _______ _____ _____    ______ ____
ROOT
ATOM      1  O   UNL     1      -2.469  -1.236   3.616  0.00  0.00    -0.337 OA
ATOM      2  O   UNL     1      -4.613  -1.397   3.764  0.00  0.00    -0.341 OA
ATOM      3  O   UNL     1      -4.852   0.023   2.502  0.00  0.00    -0.343 OA
ATOM      4  C   UNL     1      -1.995  -5.237   7.173  0.00  0.00    +0.075 C 
ATOM      5  C   UNL     1      -2.591  -4.598   6.606  0.00  0.00    +0.025 C 
ATOM      6  C   UNL     1      -2.181  -3.916   6.000  0.00  0.00    +0.008 C 
ATOM      7  C   UNL     1      -0.958  -5.165   7.107  0.00  0.00    +0.004 C 
ATOM      8  C   UNL     1      -2.766  -3.310   5.461  0.00  0.00    +0.034 C 
ATOM      9  C   UNL     1      -3.761  -3.384   5.530  0.00  0.00    +0.005 C 
ATOM     10  C   UNL     1      -1.147  -3.826   5.917  0.00  0.00    +0.005 C 
ATOM     11  C   UNL     1      -0.531  -4.455   6.475  0.00  0.00    +0.010 C 
ATOM     12  C   UNL     1      -0.549  -5.876   7.739  0.00  0.00    +0.027 C 
ATOM     13  C   UNL     1      -3.586  -4.672   6.675  0.00  0.00    +0.007 C 
ATOM     14  C   UNL     1      -2.219  -5.992   7.845  0.00  0.00    +0.036 C 
ATOM     15  C   UNL     1      -4.171  -4.066   6.136  0.00  0.00    +0.005 C 
ATOM     16  C   UNL     1      -1.327  -6.386   8.194  0.00  0.00    +0.011 C 
ATOM     17  C   UNL     1      -2.325  -2.605   4.834  0.00  0.00    +0.049 C 
ATOM     18  C   UNL     1      -4.384  -2.760   4.975  0.00  0.00    +0.038 C 
ATOM     19  C   UNL     1       0.038  -5.095   7.043  0.00  0.00    +0.014 C 
ATOM     20  C   UNL     1      -2.928  -1.970   4.270  0.00  0.00    +0.152 C 
ATOM     21  C   UNL     1      -3.964  -2.047   4.341  0.00  0.00    +0.151 C 
ATOM     22  C   UNL     1      -3.097  -0.574   3.029  0.00  0.00    +0.247 C 
ATOM     23  C   UNL     1      -4.177  -0.655   3.104  0.00  0.00    +0.314 C 
ATOM     24  C   UNL     1      -2.618   0.191   2.348  0.00  0.00    +0.181 C 
ATOM     25  C   UNL     1      -3.272   0.880   1.736  0.00  0.00    +0.068 C 
ATOM     26  C   UNL     1      -4.397   0.795   1.814  0.00  0.00    +0.121 C 
ATOM     27  C   UNL     1      -4.985   1.400   1.277  0.00  0.00    +0.038 C 
ENDROOT
BRANCH  12  30
ATOM     28  O   UNL     1       1.938  -5.933   8.448  0.00  0.00    -0.457 OA
ATOM     29  O   UNL     1       2.690  -7.228   7.484  0.00  0.00    -0.246 OA
ATOM     30  C   UNL     1       0.426  -6.042   7.884  0.00  0.00    -0.022 C 
ATOM     31  C   UNL     1       1.018  -5.548   8.521  0.00  0.00    +0.264 C 
ATOM     32  C   UNL     1       0.980  -6.731   7.418  0.00  0.00    +0.094 C 
ATOM     33  C   UNL     1       1.915  -6.664   7.767  0.00  0.00    +0.332 C 
ENDBRANCH  12  30
BRANCH   4  34
ATOM     34  O   UNL     1      -2.990  -5.305   7.236  0.00  0.00    -0.388 OA
ATOM     35  H   UNL     1      -3.284  -5.791   6.986  0.00  0.00    +0.210 HD
ENDBRANCH   4  34
BRANCH   8  37
ATOM     36  O   UNL     1      -1.539  -2.087   5.466  0.00  0.00    -0.300 OA
ATOM     37  C   UNL     1      -1.867  -2.985   5.171  0.00  0.00    +0.230 C 
ENDBRANCH   8  37
BRANCH  22  38
ATOM     38  O   UNL     1      -2.102  -0.499   2.961  0.00  0.00    -0.359 OA
ATOM     39  H   UNL     1      -1.803  -0.764   2.486  0.00  0.00    +0.213 HD
ENDBRANCH  22  38
BRANCH  24  40
ATOM     40  O   UNL     1      -1.622   0.257   2.287  0.00  0.00    -0.386 OA
ATOM     41  H   UNL     1      -1.316  -0.062   1.852  0.00  0.00    +0.210 HD
ENDBRANCH  24  40
TORSDOF 5
ENDMDL
MODEL 9
REMARK VINA RESULT:      -7.3     10.377     14.241
REMARK  Name = 16142
REMARK  7 active torsions:
REMARK  status: ('A' for Active; 'I' for Inactive)
REMARK    1  A    between atoms: O_1  and  C_10
REMARK    2  A    between atoms: O_7  and  C_30
REMARK    3  A    between atoms: O_8  and  C_34
REMARK    4  A    between atoms: C_13  and  C_25
REMARK    5  A    between atoms: C_14  and  C_28
REMARK    6  A    between atoms: C_18  and  C_29
REMARK    7  A    between atoms: C_37  and  C_38
REMARK                            x       y       z     vdW  Elec       q    Type
REMARK                         _______ _______ _______ _____ _____    ______ ____
ROOT
ATOM      1  O   UNL     1      -3.037  -1.546   2.006  0.00  0.00    -0.337 OA
ATOM      2  O   UNL     1      -4.629  -0.920   3.316  0.00  0.00    -0.341 OA
ATOM      3  O   UNL     1      -4.964   0.630   2.242  0.00  0.00    -0.343 OA
ATOM      4  C   UNL     1      -2.244  -5.839   5.140  0.00  0.00    +0.075 C 
ATOM      5  C   UNL     1      -2.761  -4.961   4.924  0.00  0.00    +0.025 C 
ATOM      6  C   UNL     1      -2.528  -4.411   4.122  0.00  0.00    +0.008 C 
ATOM      7  C   UNL     1      -1.473  -6.148   4.511  0.00  0.00    +0.004 C 
ATOM      8  C   UNL     1      -3.034  -3.571   3.928  0.00  0.00    +0.034 C 
ATOM      9  C   UNL     1      -3.773  -3.280   4.536  0.00  0.00    +0.005 C 
ATOM     10  C   UNL     1      -1.761  -4.701   3.480  0.00  0.00    +0.005 C 
ATOM     11  C   UNL     1      -1.229  -5.575   3.676  0.00  0.00    +0.010 C 
ATOM     12  C   UNL     1      -1.088  -7.031   4.891  0.00  0.00    +0.027 C 
ATOM     13  C   UNL     1      -3.500  -4.670   5.532  0.00  0.00    +0.007 C 
ATOM     14  C   UNL     1      -2.329  -6.534   5.903  0.00  0.00    +0.036 C 
ATOM     15  C   UNL     1      -4.006  -3.830   5.338  0.00  0.00    +0.005 C 
ATOM     16  C   UNL     1      -1.617  -7.269   5.750  0.00  0.00    +0.011 C 
ATOM     17  C   UNL     1      -2.779  -3.009   3.089  0.00  0.00    +0.049 C 
ATOM     18  C   UNL     1      -4.308  -2.407   4.346  0.00  0.00    +0.038 C 
ATOM     19  C   UNL     1      -0.732  -6.445   3.908  0.00  0.00    +0.014 C 
ATOM     20  C   UNL     1      -3.301  -2.132   2.880  0.00  0.00    +0.152 C 
ATOM     21  C   UNL     1      -4.071  -1.829   3.512  0.00  0.00    +0.151 C 
ATOM     22  C   UNL     1      -3.580  -0.633   1.788  0.00  0.00    +0.247 C 
ATOM     23  C   UNL     1      -4.383  -0.317   2.448  0.00  0.00    +0.314 C 
ATOM     24  C   UNL     1      -3.304  -0.022   0.878  0.00  0.00    +0.181 C 
ATOM     25  C   UNL     1      -3.871   0.929   0.651  0.00  0.00    +0.068 C 
ATOM     26  C   UNL     1      -4.706   1.257   1.338  0.00  0.00    +0.121 C 
ATOM     27  C   UNL     1      -5.214   2.097   1.147  0.00  0.00    +0.038 C 
ENDROOT
BRANCH  12  30
ATOM     28  O   UNL     1       0.493  -8.620   3.601  0.00  0.00    -0.457 OA
ATOM     29  O   UNL     1       2.132  -8.283   4.217  0.00  0.00    -0.246 OA
ATOM     30  C   UNL     1      -0.338  -7.562   4.498  0.00  0.00    -0.022 C 
ATOM     31  C   UNL     1      -0.421  -8.265   3.792  0.00  0.00    +0.264 C 
ATOM     32  C   UNL     1       0.629  -7.483   4.744  0.00  0.00    +0.094 C 
ATOM     33  C   UNL     1       1.143  -8.138   4.189  0.00  0.00    +0.332 C 
ENDBRANCH  12  30
BRANCH   4  34
ATOM     34  O   UNL     1      -2.984  -5.542   5.743  0.00  0.00    -0.388 OA
ATOM     35  H   UNL     1      -3.355  -5.076   5.571  0.00  0.00    +0.210 HD
ENDBRANCH   4  34
BRANCH   8  37
ATOM     36  O   UNL     1      -2.723  -3.748   2.233  0.00  0.00    -0.300 OA
ATOM     37  C   UNL     1      -2.394  -3.569   3.160  0.00  0.00    +0.230 C 
ENDBRANCH   8  37
BRANCH  22  38
ATOM     38  O   UNL     1      -2.841  -0.923   1.180  0.00  0.00    -0.359 OA
ATOM     39  H   UNL     1      -2.540  -0.505   0.836  0.00  0.00    +0.213 HD
ENDBRANCH  22  38
BRANCH  24  40
ATOM     40  O   UNL     1      -2.564  -0.323   0.276  0.00  0.00    -0.386 OA
ATOM     41  H   UNL     1      -2.648  -0.334  -0.338  0.00  0.00    +0.210 HD
ENDBRANCH  24  40
TORSDOF 5
ENDMDL
