MODEL 1
REMARK VINA RESULT:      -4.5      0.000      0.000
REMARK  Name = 2244
REMARK  5 active torsions:
REMARK  status: ('A' for Active; 'I' for Inactive)
REMARK    1  A    between atoms: O_1  and  C_5
REMARK    2  A    between atoms: O_1  and  C_12
REMARK    3  A    between atoms: O_2  and  C_11
REMARK    4  A    between atoms: C_6  and  C_11
REMARK    5  A    between atoms: C_12  and  C_13
REMARK                            x       y       z     vdW  Elec       q    Type
REMARK                         _______ _______ _______ _____ _____    ______ ____
ROOT
ATOM      1  C   UNL     1       9.327   5.386  -9.937  0.00  0.00    +0.146 A 
ATOM      2  C   UNL     1       8.584   6.042 -10.075  0.00  0.00    +0.101 A 
ATOM      3  C   UNL     1       9.273   4.720  -9.194  0.00  0.00    +0.047 A 
ATOM      4  C   UNL     1       7.788   6.030  -9.470  0.00  0.00    +0.018 A 
ATOM      5  C   UNL     1       8.477   4.708  -8.589  0.00  0.00    +0.004 A 
ATOM      6  C   UNL     1       7.734   5.363  -8.727  0.00  0.00    +0.001 A 
ENDROOT
BRANCH   2   8
ATOM      7  O   UNL     1       8.284   6.476 -11.725  0.00  0.00    -0.245 OA
ATOM      8  C   UNL     1       8.637   6.708 -10.819  0.00  0.00    +0.340 C 
BRANCH   8   9
ATOM      9  O   UNL     1       9.044   7.607 -10.656  0.00  0.00    -0.477 OA
ATOM     10  H   UNL     1       8.956   7.894 -10.114  0.00  0.00    +0.295 HD
ENDBRANCH   8   9
ENDBRANCH   2   8
BRANCH   1  11
ATOM     11  O   UNL     1      10.123   5.398 -10.542  0.00  0.00    -0.425 OA
BRANCH  11  13
ATOM     12  O   UNL     1      11.624   5.046  -9.754  0.00  0.00    -0.251 OA
ATOM     13  C   UNL     1      10.888   4.776 -10.374  0.00  0.00    +0.309 C 
ATOM     14  C   UNL     1      10.916   3.884 -10.825  0.00  0.00    +0.136 C 
ENDBRANCH  11  13
ENDBRANCH   1  11
TORSDOF 4
ENDMDL
MODEL 2
REMARK VINA RESULT:      -4.2      0.918      2.752
REMARK  Name = 2244
REMARK  5 active torsions:
REMARK  status: ('A' for Active; 'I' for Inactive)
REMARK    1  A    between atoms: O_1  and  C_5
REMARK    2  A    between atoms: O_1  and  C_12
REMARK    3  A    between atoms: O_2  and  C_11
REMARK    4  A    between atoms: C_6  and  C_11
REMARK    5  A    between atoms: C_12  and  C_13
REMARK                            x       y       z     vdW  Elec       q    Type
REMARK                         _______ _______ _______ _____ _____    ______ ____
ROOT
ATOM      1  C   UNL     1       9.548   4.961  -9.777  0.00  0.00    +0.146 A 
ATOM      2  C   UNL     1      10.340   4.458  -9.431  0.00  0.00    +0.101 A 
ATOM      3  C   UNL     1       8.702   4.987  -9.245  0.00  0.00    +0.047 A 
ATOM      4  C   UNL     1      10.287   3.982  -8.554  0.00  0.00    +0.018 A 
ATOM      5  C   UNL     1       8.648   4.512  -8.367  0.00  0.00    +0.004 A 
ATOM      6  C   UNL     1       9.440   4.009  -8.021  0.00  0.00    +0.001 A 
ENDROOT
BRANCH   2   8
ATOM      7  O   UNL     1      11.311   3.735 -10.670  0.00  0.00    -0.245 OA
ATOM      8  C   UNL     1      11.187   4.431  -9.964  0.00  0.00    +0.340 C 
BRANCH   8   9
ATOM      9  O   UNL     1      11.908   5.101  -9.789  0.00  0.00    -0.477 OA
ATOM     10  H   UNL     1      12.464   4.913  -9.587  0.00  0.00    +0.295 HD
ENDBRANCH   8   9
ENDBRANCH   2   8
BRANCH   1  11
ATOM     11  O   UNL     1       9.602   5.436 -10.655  0.00  0.00    -0.425 OA
BRANCH  11  13
ATOM     12  O   UNL     1       9.150   7.107 -10.575  0.00  0.00    -0.251 OA
ATOM     13  C   UNL     1       8.956   6.170 -10.867  0.00  0.00    +0.309 C 
ATOM     14  C   UNL     1       8.116   5.967 -11.370  0.00  0.00    +0.136 C 
ENDBRANCH  11  13
ENDBRANCH   1  11
TORSDOF 4
ENDMDL
MODEL 3
REMARK VINA RESULT:      -4.0      1.429      2.776
REMARK  Name = 2244
REMARK  5 active torsions:
REMARK  status: ('A' for Active; 'I' for Inactive)
REMARK    1  A    between atoms: O_1  and  C_5
REMARK    2  A    between atoms: O_1  and  C_12
REMARK    3  A    between atoms: O_2  and  C_11
REMARK    4  A    between atoms: C_6  and  C_11
REMARK    5  A    between atoms: C_12  and  C_13
REMARK                            x       y       z     vdW  Elec       q    Type
REMARK                         _______ _______ _______ _____ _____    ______ ____
ROOT
ATOM      1  C   UNL     1       8.352   5.721  -9.485  0.00  0.00    +0.146 A 
ATOM      2  C   UNL     1       8.889   5.973 -10.290  0.00  0.00    +0.101 A 
ATOM      3  C   UNL     1       8.619   4.930  -8.934  0.00  0.00    +0.047 A 
ATOM      4  C   UNL     1       9.693   5.435 -10.544  0.00  0.00    +0.018 A 
ATOM      5  C   UNL     1       9.423   4.392  -9.188  0.00  0.00    +0.004 A 
ATOM      6  C   UNL     1       9.960   4.644  -9.993  0.00  0.00    +0.001 A 
ENDROOT
BRANCH   2   8
ATOM      7  O   UNL     1       7.955   6.657 -11.579  0.00  0.00    -0.245 OA
ATOM      8  C   UNL     1       8.622   6.764 -10.842  0.00  0.00    +0.340 C 
BRANCH   8   9
ATOM      9  O   UNL     1       9.022   7.661 -10.655  0.00  0.00    -0.477 OA
ATOM     10  H   UNL     1       9.008   7.893 -10.080  0.00  0.00    +0.295 HD
ENDBRANCH   8   9
ENDBRANCH   2   8
BRANCH   1  11
ATOM     11  O   UNL     1       7.549   6.259  -9.231  0.00  0.00    -0.425 OA
BRANCH  11  13
ATOM     12  O   UNL     1       7.417   6.389  -7.509  0.00  0.00    -0.251 OA
ATOM     13  C   UNL     1       7.060   6.057  -8.382  0.00  0.00    +0.309 C 
ATOM     14  C   UNL     1       6.215   5.524  -8.407  0.00  0.00    +0.136 C 
ENDBRANCH  11  13
ENDBRANCH   1  11
TORSDOF 4
ENDMDL
MODEL 4
REMARK VINA RESULT:      -3.9      3.628      4.686
REMARK  Name = 2244
REMARK  5 active torsions:
REMARK  status: ('A' for Active; 'I' for Inactive)
REMARK    1  A    between atoms: O_1  and  C_5
REMARK    2  A    between atoms: O_1  and  C_12
REMARK    3  A    between atoms: O_2  and  C_11
REMARK    4  A    between atoms: C_6  and  C_11
REMARK    5  A    between atoms: C_12  and  C_13
REMARK                            x       y       z     vdW  Elec       q    Type
REMARK                         _______ _______ _______ _____ _____    ______ ____
ROOT
ATOM      1  C   UNL     1       6.752   6.398  -6.947  0.00  0.00    +0.146 A 
ATOM      2  C   UNL     1       6.683   6.709  -5.999  0.00  0.00    +0.101 A 
ATOM      3  C   UNL     1       5.985   6.531  -7.575  0.00  0.00    +0.047 A 
ATOM      4  C   UNL     1       5.846   7.154  -5.679  0.00  0.00    +0.018 A 
ATOM      5  C   UNL     1       5.149   6.976  -7.255  0.00  0.00    +0.004 A 
ATOM      6  C   UNL     1       5.079   7.288  -6.307  0.00  0.00    +0.001 A 
ENDROOT
BRANCH   2   8
ATOM      7  O   UNL     1       7.529   5.724  -4.854  0.00  0.00    -0.245 OA
ATOM      8  C   UNL     1       7.450   6.576  -5.372  0.00  0.00    +0.340 C 
BRANCH   8   9
ATOM      9  O   UNL     1       8.137   7.294  -5.262  0.00  0.00    -0.477 OA
ATOM     10  H   UNL     1       8.628   7.200  -4.895  0.00  0.00    +0.295 HD
ENDBRANCH   8   9
ENDBRANCH   2   8
BRANCH   1  11
ATOM     11  O   UNL     1       7.588   5.953  -7.267  0.00  0.00    -0.425 OA
BRANCH  11  13
ATOM     12  O   UNL     1       7.864   6.213  -8.957  0.00  0.00    -0.251 OA
ATOM     13  C   UNL     1       7.640   5.598  -8.201  0.00  0.00    +0.309 C 
ATOM     14  C   UNL     1       7.469   4.629  -8.377  0.00  0.00    +0.136 C 
ENDBRANCH  11  13
ENDBRANCH   1  11
TORSDOF 4
ENDMDL
MODEL 5
REMARK VINA RESULT:      -3.8      1.591      2.399
REMARK  Name = 2244
REMARK  5 active torsions:
REMARK  status: ('A' for Active; 'I' for Inactive)
REMARK    1  A    between atoms: O_1  and  C_5
REMARK    2  A    between atoms: O_1  and  C_12
REMARK    3  A    between atoms: O_2  and  C_11
REMARK    4  A    between atoms: C_6  and  C_11
REMARK    5  A    between atoms: C_12  and  C_13
REMARK                            x       y       z     vdW  Elec       q    Type
REMARK                         _______ _______ _______ _____ _____    ______ ____
ROOT
ATOM      1  C   UNL     1       9.398   4.896  -9.402  0.00  0.00    +0.146 A 
ATOM      2  C   UNL     1       8.643   4.898  -8.746  0.00  0.00    +0.101 A 
ATOM      3  C   UNL     1       9.344   5.458 -10.228  0.00  0.00    +0.047 A 
ATOM      4  C   UNL     1       7.834   5.461  -8.916  0.00  0.00    +0.018 A 
ATOM      5  C   UNL     1       8.535   6.021 -10.397  0.00  0.00    +0.004 A 
ATOM      6  C   UNL     1       7.780   6.023  -9.741  0.00  0.00    +0.001 A 
ENDROOT
BRANCH   2   8
ATOM      7  O   UNL     1       8.370   3.391  -7.937  0.00  0.00    -0.245 OA
ATOM      8  C   UNL     1       8.697   4.336  -7.921  0.00  0.00    +0.340 C 
BRANCH   8   9
ATOM      9  O   UNL     1       9.077   4.719  -7.079  0.00  0.00    -0.477 OA
ATOM     10  H   UNL     1       8.699   4.908  -6.626  0.00  0.00    +0.295 HD
ENDBRANCH   8   9
ENDBRANCH   2   8
BRANCH   1  11
ATOM     11  O   UNL     1      10.206   4.333  -9.233  0.00  0.00    -0.425 OA
BRANCH  11  13
ATOM     12  O   UNL     1      11.649   5.102  -9.804  0.00  0.00    -0.251 OA
ATOM     13  C   UNL     1      10.978   4.363  -9.867  0.00  0.00    +0.309 C 
ATOM     14  C   UNL     1      11.080   3.654 -10.565  0.00  0.00    +0.136 C 
ENDBRANCH  11  13
ENDBRANCH   1  11
TORSDOF 4
ENDMDL
MODEL 6
REMARK VINA RESULT:      -3.8      6.404      7.555
REMARK  Name = 2244
REMARK  5 active torsions:
REMARK  status: ('A' for Active; 'I' for Inactive)
REMARK    1  A    between atoms: O_1  and  C_5
REMARK    2  A    between atoms: O_1  and  C_12
REMARK    3  A    between atoms: O_2  and  C_11
REMARK    4  A    between atoms: C_6  and  C_11
REMARK    5  A    between atoms: C_12  and  C_13
REMARK                            x       y       z     vdW  Elec       q    Type
REMARK                         _______ _______ _______ _____ _____    ______ ____
ROOT
ATOM      1  C   UNL     1       6.894   6.573  -3.259  0.00  0.00    +0.146 A 
ATOM      2  C   UNL     1       7.288   6.340  -4.148  0.00  0.00    +0.101 A 
ATOM      3  C   UNL     1       5.983   6.242  -3.014  0.00  0.00    +0.047 A 
ATOM      4  C   UNL     1       6.771   5.777  -4.792  0.00  0.00    +0.018 A 
ATOM      5  C   UNL     1       5.465   5.678  -3.658  0.00  0.00    +0.004 A 
ATOM      6  C   UNL     1       5.860   5.446  -4.548  0.00  0.00    +0.001 A 
ENDROOT
BRANCH   2   8
ATOM      7  O   UNL     1       9.012   6.191  -4.061  0.00  0.00    -0.245 OA
ATOM      8  C   UNL     1       8.199   6.671  -4.393  0.00  0.00    +0.340 C 
BRANCH   8   9
ATOM      9  O   UNL     1       8.299   7.483  -4.969  0.00  0.00    -0.477 OA
ATOM     10  H   UNL     1       7.983   7.526  -5.500  0.00  0.00    +0.295 HD
ENDBRANCH   8   9
ENDBRANCH   2   8
BRANCH   1  11
ATOM     11  O   UNL     1       7.411   7.136  -2.614  0.00  0.00    -0.425 OA
BRANCH  11  13
ATOM     12  O   UNL     1       7.392   6.359  -1.066  0.00  0.00    -0.251 OA
ATOM     13  C   UNL     1       7.164   7.142  -1.645  0.00  0.00    +0.309 C 
ATOM     14  C   UNL     1       6.688   7.930  -1.256  0.00  0.00    +0.136 C 
ENDBRANCH  11  13
ENDBRANCH   1  11
TORSDOF 4
ENDMDL
MODEL 7
REMARK VINA RESULT:      -3.8      4.369      5.418
REMARK  Name = 2244
REMARK  5 active torsions:
REMARK  status: ('A' for Active; 'I' for Inactive)
REMARK    1  A    between atoms: O_1  and  C_5
REMARK    2  A    between atoms: O_1  and  C_12
REMARK    3  A    between atoms: O_2  and  C_11
REMARK    4  A    between atoms: C_6  and  C_11
REMARK    5  A    between atoms: C_12  and  C_13
REMARK                            x       y       z     vdW  Elec       q    Type
REMARK                         _______ _______ _______ _____ _____    ______ ____
ROOT
ATOM      1  C   UNL     1       7.128   5.736  -5.469  0.00  0.00    +0.146 A 
ATOM      2  C   UNL     1       7.279   6.341  -4.688  0.00  0.00    +0.101 A 
ATOM      3  C   UNL     1       6.222   5.347  -5.633  0.00  0.00    +0.047 A 
ATOM      4  C   UNL     1       6.523   6.558  -4.070  0.00  0.00    +0.018 A 
ATOM      5  C   UNL     1       5.466   5.563  -5.015  0.00  0.00    +0.004 A 
ATOM      6  C   UNL     1       5.616   6.169  -4.233  0.00  0.00    +0.001 A 
ENDROOT
BRANCH   2   8
ATOM      7  O   UNL     1       8.838   6.250  -3.938  0.00  0.00    -0.245 OA
ATOM      8  C   UNL     1       8.185   6.731  -4.524  0.00  0.00    +0.340 C 
BRANCH   8   9
ATOM      9  O   UNL     1       8.439   7.601  -4.946  0.00  0.00    -0.477 OA
ATOM     10  H   UNL     1       8.471   7.649  -5.563  0.00  0.00    +0.295 HD
ENDBRANCH   8   9
ENDBRANCH   2   8
BRANCH   1  11
ATOM     11  O   UNL     1       7.884   5.519  -6.087  0.00  0.00    -0.425 OA
BRANCH  11  13
ATOM     12  O   UNL     1       7.488   6.184  -7.636  0.00  0.00    -0.251 OA
ATOM     13  C   UNL     1       7.712   5.395  -7.064  0.00  0.00    +0.309 C 
ATOM     14  C   UNL     1       7.762   4.482  -7.468  0.00  0.00    +0.136 C 
ENDBRANCH  11  13
ENDBRANCH   1  11
TORSDOF 4
ENDMDL
MODEL 8
REMARK VINA RESULT:      -3.7      1.792      2.778
REMARK  Name = 2244
REMARK  5 active torsions:
REMARK  status: ('A' for Active; 'I' for Inactive)
REMARK    1  A    between atoms: O_1  and  C_5
REMARK    2  A    between atoms: O_1  and  C_12
REMARK    3  A    between atoms: O_2  and  C_11
REMARK    4  A    between atoms: C_6  and  C_11
REMARK    5  A    between atoms: C_12  and  C_13
REMARK                            x       y       z     vdW  Elec       q    Type
REMARK                         _______ _______ _______ _____ _____    ______ ____
ROOT
ATOM      1  C   UNL     1       9.773   4.217  -9.232  0.00  0.00    +0.146 A 
ATOM      2  C   UNL     1      10.199   4.751  -9.962  0.00  0.00    +0.101 A 
ATOM      3  C   UNL     1       8.827   4.402  -8.964  0.00  0.00    +0.047 A 
ATOM      4  C   UNL     1       9.680   5.470 -10.424  0.00  0.00    +0.018 A 
ATOM      5  C   UNL     1       8.308   5.121  -9.427  0.00  0.00    +0.004 A 
ATOM      6  C   UNL     1       8.734   5.654 -10.157  0.00  0.00    +0.001 A 
ENDROOT
BRANCH   2   8
ATOM      7  O   UNL     1      11.338   3.917 -10.965  0.00  0.00    -0.245 OA
ATOM      8  C   UNL     1      11.145   4.566 -10.229  0.00  0.00    +0.340 C 
BRANCH   8   9
ATOM      9  O   UNL     1      11.897   5.030  -9.761  0.00  0.00    -0.477 OA
ATOM     10  H   UNL     1      12.198   5.493 -10.042  0.00  0.00    +0.295 HD
ENDBRANCH   8   9
ENDBRANCH   2   8
BRANCH   1  11
ATOM     11  O   UNL     1      10.292   3.498  -8.769  0.00  0.00    -0.425 OA
BRANCH  11  13
ATOM     12  O   UNL     1      10.018   3.660  -7.067  0.00  0.00    -0.251 OA
ATOM     13  C   UNL     1       9.960   3.119  -7.906  0.00  0.00    +0.309 C 
ATOM     14  C   UNL     1       9.570   2.198  -7.881  0.00  0.00    +0.136 C 
ENDBRANCH  11  13
ENDBRANCH   1  11
TORSDOF 4
ENDMDL
MODEL 9
REMARK VINA RESULT:      -3.5      3.875      5.098
REMARK  Name = 2244
REMARK  5 active torsions:
REMARK  status: ('A' for Active; 'I' for Inactive)
REMARK    1  A    between atoms: O_1  and  C_5
REMARK    2  A    between atoms: O_1  and  C_12
REMARK    3  A    between atoms: O_2  and  C_11
REMARK    4  A    between atoms: C_6  and  C_11
REMARK    5  A    between atoms: C_12  and  C_13
REMARK                            x       y       z     vdW  Elec       q    Type
REMARK                         _______ _______ _______ _____ _____    ______ ____
ROOT
ATOM      1  C   UNL     1       7.101   6.177  -6.038  0.00  0.00    +0.146 A 
ATOM      2  C   UNL     1       7.131   5.712  -6.923  0.00  0.00    +0.101 A 
ATOM      3  C   UNL     1       6.386   6.850  -5.851  0.00  0.00    +0.047 A 
ATOM      4  C   UNL     1       6.446   5.919  -7.620  0.00  0.00    +0.018 A 
ATOM      5  C   UNL     1       5.700   7.058  -6.549  0.00  0.00    +0.004 A 
ATOM      6  C   UNL     1       5.730   6.592  -7.433  0.00  0.00    +0.001 A 
ENDROOT
BRANCH   2   8
ATOM      7  O   UNL     1       7.742   4.096  -6.792  0.00  0.00    -0.245 OA
ATOM      8  C   UNL     1       7.847   5.039  -7.110  0.00  0.00    +0.340 C 
BRANCH   8   9
ATOM      9  O   UNL     1       8.667   5.308  -7.614  0.00  0.00    -0.477 OA
ATOM     10  H   UNL     1       9.151   5.552  -7.312  0.00  0.00    +0.295 HD
ENDBRANCH   8   9
ENDBRANCH   2   8
BRANCH   1  11
ATOM     11  O   UNL     1       7.787   5.969  -5.341  0.00  0.00    -0.425 OA
BRANCH  11  13
ATOM     12  O   UNL     1       8.439   7.436  -4.689  0.00  0.00    -0.251 OA
ATOM     13  C   UNL     1       7.918   6.590  -4.568  0.00  0.00    +0.309 C 
ATOM     14  C   UNL     1       7.529   6.366  -3.674  0.00  0.00    +0.136 C 
ENDBRANCH  11  13
ENDBRANCH   1  11
TORSDOF 4
ENDMDL
