MODEL 1
REMARK VINA RESULT:      -4.1      0.000      0.000
REMARK  Name = 2244
REMARK  5 active torsions:
REMARK  status: ('A' for Active; 'I' for Inactive)
REMARK    1  A    between atoms: O_1  and  C_5
REMARK    2  A    between atoms: O_1  and  C_12
REMARK    3  A    between atoms: O_2  and  C_11
REMARK    4  A    between atoms: C_6  and  C_11
REMARK    5  A    between atoms: C_12  and  C_13
REMARK                            x       y       z     vdW  Elec       q    Type
REMARK                         _______ _______ _______ _____ _____    ______ ____
ROOT
ATOM      1  C   UNL     1       7.048   6.733  -2.954  0.00  0.00    +0.146 A 
ATOM      2  C   UNL     1       7.394   6.431  -3.842  0.00  0.00    +0.101 A 
ATOM      3  C   UNL     1       6.183   6.373  -2.605  0.00  0.00    +0.047 A 
ATOM      4  C   UNL     1       6.874   5.768  -4.381  0.00  0.00    +0.018 A 
ATOM      5  C   UNL     1       5.663   5.710  -3.144  0.00  0.00    +0.004 A 
ATOM      6  C   UNL     1       6.009   5.408  -4.032  0.00  0.00    +0.001 A 
ENDROOT
BRANCH   2   8
ATOM      7  O   UNL     1       9.125   6.399  -3.881  0.00  0.00    -0.245 OA
ATOM      8  C   UNL     1       8.259   6.791  -4.191  0.00  0.00    +0.340 C 
BRANCH   8   9
ATOM      9  O   UNL     1       8.257   7.543  -4.850  0.00  0.00    -0.477 OA
ATOM     10  H   UNL     1       7.777   7.934  -4.873  0.00  0.00    +0.295 HD
ENDBRANCH   8   9
ENDBRANCH   2   8
BRANCH   1  11
ATOM     11  O   UNL     1       7.568   7.396  -2.414  0.00  0.00    -0.425 OA
BRANCH  11  13
ATOM     12  O   UNL     1       6.464   8.568  -1.775  0.00  0.00    -0.251 OA
ATOM     13  C   UNL     1       7.141   7.846  -1.630  0.00  0.00    +0.309 C 
ATOM     14  C   UNL     1       7.392   7.576  -0.701  0.00  0.00    +0.136 C 
ENDBRANCH  11  13
ENDBRANCH   1  11
TORSDOF 4
ENDMDL
MODEL 2
REMARK VINA RESULT:      -3.8      1.037      2.918
REMARK  Name = 2244
REMARK  5 active torsions:
REMARK  status: ('A' for Active; 'I' for Inactive)
REMARK    1  A    between atoms: O_1  and  C_5
REMARK    2  A    between atoms: O_1  and  C_12
REMARK    3  A    between atoms: O_2  and  C_11
REMARK    4  A    between atoms: C_6  and  C_11
REMARK    5  A    between atoms: C_12  and  C_13
REMARK                            x       y       z     vdW  Elec       q    Type
REMARK                         _______ _______ _______ _____ _____    ______ ____
ROOT
ATOM      1  C   UNL     1       6.996   6.493  -2.690  0.00  0.00    +0.146 A 
ATOM      2  C   UNL     1       6.862   6.845  -1.764  0.00  0.00    +0.101 A 
ATOM      3  C   UNL     1       6.734   5.554  -2.911  0.00  0.00    +0.047 A 
ATOM      4  C   UNL     1       6.465   6.257  -1.058  0.00  0.00    +0.018 A 
ATOM      5  C   UNL     1       6.337   4.966  -2.206  0.00  0.00    +0.004 A 
ATOM      6  C   UNL     1       6.203   5.317  -1.280  0.00  0.00    +0.001 A 
ENDROOT
BRANCH   2   8
ATOM      7  O   UNL     1       6.451   8.520  -1.611  0.00  0.00    -0.245 OA
ATOM      8  C   UNL     1       7.124   7.784  -1.542  0.00  0.00    +0.340 C 
BRANCH   8   9
ATOM      9  O   UNL     1       8.059   7.987  -1.252  0.00  0.00    -0.477 OA
ATOM     10  H   UNL     1       8.452   7.524  -1.126  0.00  0.00    +0.295 HD
ENDBRANCH   8   9
ENDBRANCH   2   8
BRANCH   1  11
ATOM     11  O   UNL     1       7.392   7.081  -3.395  0.00  0.00    -0.425 OA
BRANCH  11  13
ATOM     12  O   UNL     1       8.879   6.358  -3.912  0.00  0.00    -0.251 OA
ATOM     13  C   UNL     1       7.956   6.683  -4.119  0.00  0.00    +0.309 C 
ATOM     14  C   UNL     1       7.597   6.611  -5.049  0.00  0.00    +0.136 C 
ENDBRANCH  11  13
ENDBRANCH   1  11
TORSDOF 4
ENDMDL
MODEL 3
REMARK VINA RESULT:      -3.7      1.537      2.025
REMARK  Name = 2244
REMARK  5 active torsions:
REMARK  status: ('A' for Active; 'I' for Inactive)
REMARK    1  A    between atoms: O_1  and  C_5
REMARK    2  A    between atoms: O_1  and  C_12
REMARK    3  A    between atoms: O_2  and  C_11
REMARK    4  A    between atoms: C_6  and  C_11
REMARK    5  A    between atoms: C_12  and  C_13
REMARK                            x       y       z     vdW  Elec       q    Type
REMARK                         _______ _______ _______ _____ _____    ______ ____
ROOT
ATOM      1  C   UNL     1       7.098   6.211  -3.711  0.00  0.00    +0.146 A 
ATOM      2  C   UNL     1       7.753   6.587  -4.366  0.00  0.00    +0.101 A 
ATOM      3  C   UNL     1       6.177   5.964  -4.011  0.00  0.00    +0.047 A 
ATOM      4  C   UNL     1       7.486   6.717  -5.321  0.00  0.00    +0.018 A 
ATOM      5  C   UNL     1       5.910   6.095  -4.966  0.00  0.00    +0.004 A 
ATOM      6  C   UNL     1       6.565   6.471  -5.621  0.00  0.00    +0.001 A 
ENDROOT
BRANCH   2   8
ATOM      7  O   UNL     1       8.841   7.723  -3.641  0.00  0.00    -0.245 OA
ATOM      8  C   UNL     1       8.675   6.833  -4.067  0.00  0.00    +0.340 C 
BRANCH   8   9
ATOM      9  O   UNL     1       9.430   6.190  -4.193  0.00  0.00    -0.477 OA
ATOM     10  H   UNL     1       9.979   6.393  -4.398  0.00  0.00    +0.295 HD
ENDBRANCH   8   9
ENDBRANCH   2   8
BRANCH   1  11
ATOM     11  O   UNL     1       7.365   6.080  -2.756  0.00  0.00    -0.425 OA
BRANCH  11  13
ATOM     12  O   UNL     1       7.438   4.380  -2.436  0.00  0.00    -0.251 OA
ATOM     13  C   UNL     1       7.042   5.280  -2.252  0.00  0.00    +0.309 C 
ATOM     14  C   UNL     1       6.324   5.378  -1.563  0.00  0.00    +0.136 C 
ENDBRANCH  11  13
ENDBRANCH   1  11
TORSDOF 4
ENDMDL
MODEL 4
REMARK VINA RESULT:      -3.5      2.417      3.458
REMARK  Name = 2244
REMARK  5 active torsions:
REMARK  status: ('A' for Active; 'I' for Inactive)
REMARK    1  A    between atoms: O_1  and  C_5
REMARK    2  A    between atoms: O_1  and  C_12
REMARK    3  A    between atoms: O_2  and  C_11
REMARK    4  A    between atoms: C_6  and  C_11
REMARK    5  A    between atoms: C_12  and  C_13
REMARK                            x       y       z     vdW  Elec       q    Type
REMARK                         _______ _______ _______ _____ _____    ______ ____
ROOT
ATOM      1  C   UNL     1       7.150   7.342   0.326  0.00  0.00    +0.146 A 
ATOM      2  C   UNL     1       7.027   7.226  -0.660  0.00  0.00    +0.101 A 
ATOM      3  C   UNL     1       7.009   6.566   0.941  0.00  0.00    +0.047 A 
ATOM      4  C   UNL     1       6.764   6.335  -1.030  0.00  0.00    +0.018 A 
ATOM      5  C   UNL     1       6.747   5.675   0.571  0.00  0.00    +0.004 A 
ATOM      6  C   UNL     1       6.624   5.560  -0.414  0.00  0.00    +0.001 A 
ENDROOT
BRANCH   2   8
ATOM      7  O   UNL     1       8.072   8.173  -1.665  0.00  0.00    -0.245 OA
ATOM      8  C   UNL     1       7.167   8.002  -1.275  0.00  0.00    +0.340 C 
BRANCH   8   9
ATOM      9  O   UNL     1       6.403   8.606  -1.501  0.00  0.00    -0.477 OA
ATOM     10  H   UNL     1       6.487   9.081  -1.890  0.00  0.00    +0.295 HD
ENDBRANCH   8   9
ENDBRANCH   2   8
BRANCH   1  11
ATOM     11  O   UNL     1       7.413   8.233   0.696  0.00  0.00    -0.425 OA
BRANCH  11  13
ATOM     12  O   UNL     1       6.094   8.733   1.701  0.00  0.00    -0.251 OA
ATOM     13  C   UNL     1       7.065   8.526   1.587  0.00  0.00    +0.309 C 
ATOM     14  C   UNL     1       7.690   8.613   2.363  0.00  0.00    +0.136 C 
ENDBRANCH  11  13
ENDBRANCH   1  11
TORSDOF 4
ENDMDL
MODEL 5
REMARK VINA RESULT:      -3.5      3.700      5.151
REMARK  Name = 2244
REMARK  5 active torsions:
REMARK  status: ('A' for Active; 'I' for Inactive)
REMARK    1  A    between atoms: O_1  and  C_5
REMARK    2  A    between atoms: O_1  and  C_12
REMARK    3  A    between atoms: O_2  and  C_11
REMARK    4  A    between atoms: C_6  and  C_11
REMARK    5  A    between atoms: C_12  and  C_13
REMARK                            x       y       z     vdW  Elec       q    Type
REMARK                         _______ _______ _______ _____ _____    ______ ____
ROOT
ATOM      1  C   UNL     1       7.376   6.933   1.422  0.00  0.00    +0.146 A 
ATOM      2  C   UNL     1       7.501   7.860   1.069  0.00  0.00    +0.101 A 
ATOM      3  C   UNL     1       7.339   6.774   2.409  0.00  0.00    +0.047 A 
ATOM      4  C   UNL     1       7.588   8.629   1.702  0.00  0.00    +0.018 A 
ATOM      5  C   UNL     1       7.426   7.543   3.042  0.00  0.00    +0.004 A 
ATOM      6  C   UNL     1       7.551   8.470   2.689  0.00  0.00    +0.001 A 
ENDROOT
BRANCH   2   8
ATOM      7  O   UNL     1       6.702   8.229  -0.423  0.00  0.00    -0.245 OA
ATOM      8  C   UNL     1       7.539   8.018   0.082  0.00  0.00    +0.340 C 
BRANCH   8   9
ATOM      9  O   UNL     1       8.414   7.965  -0.399  0.00  0.00    -0.477 OA
ATOM     10  H   UNL     1       8.425   7.927  -1.018  0.00  0.00    +0.295 HD
ENDBRANCH   8   9
ENDBRANCH   2   8
BRANCH   1  11
ATOM     11  O   UNL     1       7.289   6.164   0.789  0.00  0.00    -0.425 OA
BRANCH  11  13
ATOM     12  O   UNL     1       8.629   5.096   1.041  0.00  0.00    -0.251 OA
ATOM     13  C   UNL     1       7.644   5.264   1.043  0.00  0.00    +0.309 C 
ATOM     14  C   UNL     1       7.012   4.532   1.300  0.00  0.00    +0.136 C 
ENDBRANCH  11  13
ENDBRANCH   1  11
TORSDOF 4
ENDMDL
MODEL 6
REMARK VINA RESULT:      -3.5      1.929      2.861
REMARK  Name = 2244
REMARK  5 active torsions:
REMARK  status: ('A' for Active; 'I' for Inactive)
REMARK    1  A    between atoms: O_1  and  C_5
REMARK    2  A    between atoms: O_1  and  C_12
REMARK    3  A    between atoms: O_2  and  C_11
REMARK    4  A    between atoms: C_6  and  C_11
REMARK    5  A    between atoms: C_12  and  C_13
REMARK                            x       y       z     vdW  Elec       q    Type
REMARK                         _______ _______ _______ _____ _____    ______ ____
ROOT
ATOM      1  C   UNL     1       6.066   6.777  -4.628  0.00  0.00    +0.146 A 
ATOM      2  C   UNL     1       6.993   6.491  -4.384  0.00  0.00    +0.101 A 
ATOM      3  C   UNL     1       5.330   6.716  -3.954  0.00  0.00    +0.047 A 
ATOM      4  C   UNL     1       7.183   6.144  -3.466  0.00  0.00    +0.018 A 
ATOM      5  C   UNL     1       5.521   6.369  -3.036  0.00  0.00    +0.004 A 
ATOM      6  C   UNL     1       6.447   6.083  -2.792  0.00  0.00    +0.001 A 
ENDROOT
BRANCH   2   8
ATOM      7  O   UNL     1       7.919   5.779  -5.662  0.00  0.00    -0.245 OA
ATOM      8  C   UNL     1       7.729   6.552  -5.058  0.00  0.00    +0.340 C 
BRANCH   8   9
ATOM      9  O   UNL     1       8.275   7.387  -5.128  0.00  0.00    -0.477 OA
ATOM     10  H   UNL     1       8.881   7.373  -4.999  0.00  0.00    +0.295 HD
ENDBRANCH   8   9
ENDBRANCH   2   8
BRANCH   1  11
ATOM     11  O   UNL     1       5.876   7.124  -5.547  0.00  0.00    -0.425 OA
BRANCH  11  13
ATOM     12  O   UNL     1       4.955   8.581  -5.382  0.00  0.00    -0.251 OA
ATOM     13  C   UNL     1       5.040   7.645  -5.721  0.00  0.00    +0.309 C 
ATOM     14  C   UNL     1       4.290   7.228  -6.235  0.00  0.00    +0.136 C 
ENDBRANCH  11  13
ENDBRANCH   1  11
TORSDOF 4
ENDMDL
MODEL 7
REMARK VINA RESULT:      -3.5      2.394      3.937
REMARK  Name = 2244
REMARK  5 active torsions:
REMARK  status: ('A' for Active; 'I' for Inactive)
REMARK    1  A    between atoms: O_1  and  C_5
REMARK    2  A    between atoms: O_1  and  C_12
REMARK    3  A    between atoms: O_2  and  C_11
REMARK    4  A    between atoms: C_6  and  C_11
REMARK    5  A    between atoms: C_12  and  C_13
REMARK                            x       y       z     vdW  Elec       q    Type
REMARK                         _______ _______ _______ _____ _____    ______ ____
ROOT
ATOM      1  C   UNL     1       6.853   6.720  -0.207  0.00  0.00    +0.146 A 
ATOM      2  C   UNL     1       7.211   7.645  -0.336  0.00  0.00    +0.101 A 
ATOM      3  C   UNL     1       6.863   6.303   0.702  0.00  0.00    +0.047 A 
ATOM      4  C   UNL     1       7.577   8.153   0.443  0.00  0.00    +0.018 A 
ATOM      5  C   UNL     1       7.230   6.811   1.481  0.00  0.00    +0.004 A 
ATOM      6  C   UNL     1       7.587   7.736   1.352  0.00  0.00    +0.001 A 
ENDROOT
BRANCH   2   8
ATOM      7  O   UNL     1       6.409   8.595  -1.543  0.00  0.00    -0.245 OA
ATOM      8  C   UNL     1       7.201   8.062  -1.245  0.00  0.00    +0.340 C 
BRANCH   8   9
ATOM      9  O   UNL     1       7.984   7.946  -1.857  0.00  0.00    -0.477 OA
ATOM     10  H   UNL     1       8.052   8.319  -2.347  0.00  0.00    +0.295 HD
ENDBRANCH   8   9
ENDBRANCH   2   8
BRANCH   1  11
ATOM     11  O   UNL     1       6.487   6.212  -0.986  0.00  0.00    -0.425 OA
BRANCH  11  13
ATOM     12  O   UNL     1       7.457   4.794  -1.200  0.00  0.00    -0.251 OA
ATOM     13  C   UNL     1       6.570   5.216  -1.018  0.00  0.00    +0.309 C 
ATOM     14  C   UNL     1       5.765   4.642  -0.866  0.00  0.00    +0.136 C 
ENDBRANCH  11  13
ENDBRANCH   1  11
TORSDOF 4
ENDMDL
MODEL 8
REMARK VINA RESULT:      -3.3      2.495      4.707
REMARK  Name = 2244
REMARK  5 active torsions:
REMARK  status: ('A' for Active; 'I' for Inactive)
REMARK    1  A    between atoms: O_1  and  C_5
REMARK    2  A    between atoms: O_1  and  C_12
REMARK    3  A    between atoms: O_2  and  C_11
REMARK    4  A    between atoms: C_6  and  C_11
REMARK    5  A    between atoms: C_12  and  C_13
REMARK                            x       y       z     vdW  Elec       q    Type
REMARK                         _______ _______ _______ _____ _____    ______ ____
ROOT
ATOM      1  C   UNL     1       7.528   7.266   0.481  0.00  0.00    +0.146 A 
ATOM      2  C   UNL     1       7.543   6.586   1.214  0.00  0.00    +0.101 A 
ATOM      3  C   UNL     1       7.465   8.239   0.702  0.00  0.00    +0.047 A 
ATOM      4  C   UNL     1       7.495   6.880   2.169  0.00  0.00    +0.018 A 
ATOM      5  C   UNL     1       7.418   8.533   1.657  0.00  0.00    +0.004 A 
ATOM      6  C   UNL     1       7.433   7.853   2.390  0.00  0.00    +0.001 A 
ENDROOT
BRANCH   2   8
ATOM      7  O   UNL     1       6.772   5.073   0.872  0.00  0.00    -0.245 OA
ATOM      8  C   UNL     1       7.605   5.613   0.993  0.00  0.00    +0.340 C 
BRANCH   8   9
ATOM      9  O   UNL     1       8.501   5.180   0.892  0.00  0.00    -0.477 OA
ATOM     10  H   UNL     1       8.691   4.760   1.308  0.00  0.00    +0.295 HD
ENDBRANCH   8   9
ENDBRANCH   2   8
BRANCH   1  11
ATOM     11  O   UNL     1       7.575   6.972  -0.474  0.00  0.00    -0.425 OA
BRANCH  11  13
ATOM     12  O   UNL     1       8.175   8.178  -1.563  0.00  0.00    -0.251 OA
ATOM     13  C   UNL     1       7.416   7.632  -1.208  0.00  0.00    +0.309 C 
ATOM     14  C   UNL     1       6.498   7.745  -1.588  0.00  0.00    +0.136 C 
ENDBRANCH  11  13
ENDBRANCH   1  11
TORSDOF 4
ENDMDL
MODEL 9
REMARK VINA RESULT:      -3.3      1.533      3.147
REMARK  Name = 2244
REMARK  5 active torsions:
REMARK  status: ('A' for Active; 'I' for Inactive)
REMARK    1  A    between atoms: O_1  and  C_5
REMARK    2  A    between atoms: O_1  and  C_12
REMARK    3  A    between atoms: O_2  and  C_11
REMARK    4  A    between atoms: C_6  and  C_11
REMARK    5  A    between atoms: C_12  and  C_13
REMARK                            x       y       z     vdW  Elec       q    Type
REMARK                         _______ _______ _______ _____ _____    ______ ____
ROOT
ATOM      1  C   UNL     1       6.831   5.745  -4.322  0.00  0.00    +0.146 A 
ATOM      2  C   UNL     1       7.409   6.425  -3.871  0.00  0.00    +0.101 A 
ATOM      3  C   UNL     1       5.975   5.454  -3.894  0.00  0.00    +0.047 A 
ATOM      4  C   UNL     1       7.132   6.814  -2.993  0.00  0.00    +0.018 A 
ATOM      5  C   UNL     1       5.698   5.843  -3.016  0.00  0.00    +0.004 A 
ATOM      6  C   UNL     1       6.276   6.523  -2.565  0.00  0.00    +0.001 A 
ENDROOT
BRANCH   2   8
ATOM      7  O   UNL     1       9.126   6.276  -4.046  0.00  0.00    -0.245 OA
ATOM      8  C   UNL     1       8.265   6.716  -4.299  0.00  0.00    +0.340 C 
BRANCH   8   9
ATOM      9  O   UNL     1       8.259   7.448  -4.981  0.00  0.00    -0.477 OA
ATOM     10  H   UNL     1       8.345   8.036  -4.805  0.00  0.00    +0.295 HD
ENDBRANCH   8   9
ENDBRANCH   2   8
BRANCH   1  11
ATOM     11  O   UNL     1       7.108   5.357  -5.201  0.00  0.00    -0.425 OA
BRANCH  11  13
ATOM     12  O   UNL     1       6.653   3.693  -5.360  0.00  0.00    -0.251 OA
ATOM     13  C   UNL     1       6.549   4.649  -5.633  0.00  0.00    +0.309 C 
ATOM     14  C   UNL     1       5.886   4.898  -6.339  0.00  0.00    +0.136 C 
ENDBRANCH  11  13
ENDBRANCH   1  11
TORSDOF 4
ENDMDL
