MODEL 1
REMARK VINA RESULT:       0.0      0.000      0.000
REMARK  Name = 962
REMARK  0 active torsions:
REMARK  status: ('A' for Active; 'I' for Inactive)
REMARK                            x       y       z     vdW  Elec       q    Type
REMARK                         _______ _______ _______ _____ _____    ______ ____
ROOT
ATOM      1  O   HOH     1      -8.667 -11.767   6.551  0.00  0.00    -0.410 OA
ATOM      2  H   HOH     0      -8.744 -11.286   6.168  0.00  0.00    +0.205 HD
ATOM      3  H   HOH     0      -9.159 -12.090   6.747  0.00  0.00    +0.205 HD
ENDROOT
TORSDOF 0
ENDMDL
MODEL 2
REMARK VINA RESULT:       0.0     14.786     14.786
REMARK  Name = 962
REMARK  0 active torsions:
REMARK  status: ('A' for Active; 'I' for Inactive)
REMARK                            x       y       z     vdW  Elec       q    Type
REMARK                         _______ _______ _______ _____ _____    ______ ____
ROOT
ATOM      1  O   HOH     1      -9.713   2.965   5.841  0.00  0.00    -0.410 OA
ATOM      2  H   HOH     0      -9.790   3.446   5.458  0.00  0.00    +0.205 HD
ATOM      3  H   HOH     0     -10.205   2.642   6.037  0.00  0.00    +0.205 HD
ENDROOT
TORSDOF 0
ENDMDL
MODEL 3
REMARK VINA RESULT:       0.0     12.563     12.563
REMARK  Name = 962
REMARK  0 active torsions:
REMARK  status: ('A' for Active; 'I' for Inactive)
REMARK                            x       y       z     vdW  Elec       q    Type
REMARK                         _______ _______ _______ _____ _____    ______ ____
ROOT
ATOM      1  O   HOH     1      -7.441   0.734   6.352  0.00  0.00    -0.410 OA
ATOM      2  H   HOH     0      -7.518   1.215   5.969  0.00  0.00    +0.205 HD
ATOM      3  H   HOH     0      -7.933   0.411   6.547  0.00  0.00    +0.205 HD
ENDROOT
TORSDOF 0
ENDMDL
MODEL 4
REMARK VINA RESULT:       0.0     14.758     14.758
REMARK  Name = 962
REMARK  0 active torsions:
REMARK  status: ('A' for Active; 'I' for Inactive)
REMARK                            x       y       z     vdW  Elec       q    Type
REMARK                         _______ _______ _______ _____ _____    ______ ____
ROOT
ATOM      1  O   HOH     1      -7.962   2.764   4.076  0.00  0.00    -0.410 OA
ATOM      2  H   HOH     0      -8.039   3.246   3.693  0.00  0.00    +0.205 HD
ATOM      3  H   HOH     0      -8.454   2.441   4.271  0.00  0.00    +0.205 HD
ENDROOT
TORSDOF 0
ENDMDL
MODEL 5
REMARK VINA RESULT:       0.0     12.140     12.140
REMARK  Name = 962
REMARK  0 active torsions:
REMARK  status: ('A' for Active; 'I' for Inactive)
REMARK                            x       y       z     vdW  Elec       q    Type
REMARK                         _______ _______ _______ _____ _____    ______ ____
ROOT
ATOM      1  O   HOH     1      -7.937   0.126   4.225  0.00  0.00    -0.410 OA
ATOM      2  H   HOH     0      -8.014   0.607   3.842  0.00  0.00    +0.205 HD
ATOM      3  H   HOH     0      -8.429  -0.197   4.420  0.00  0.00    +0.205 HD
ENDROOT
TORSDOF 0
ENDMDL
MODEL 6
REMARK VINA RESULT:       0.0     12.672     12.672
REMARK  Name = 962
REMARK  0 active torsions:
REMARK  status: ('A' for Active; 'I' for Inactive)
REMARK                            x       y       z     vdW  Elec       q    Type
REMARK                         _______ _______ _______ _____ _____    ______ ____
ROOT
ATOM      1  O   HOH     1      -7.190  -0.058   1.935  0.00  0.00    -0.410 OA
ATOM      2  H   HOH     0      -7.267   0.423   1.552  0.00  0.00    +0.205 HD
ATOM      3  H   HOH     0      -7.682  -0.381   2.131  0.00  0.00    +0.205 HD
ENDROOT
TORSDOF 0
ENDMDL
MODEL 7
REMARK VINA RESULT:       0.0     15.114     15.114
REMARK  Name = 962
REMARK  0 active torsions:
REMARK  status: ('A' for Active; 'I' for Inactive)
REMARK                            x       y       z     vdW  Elec       q    Type
REMARK                         _______ _______ _______ _____ _____    ______ ____
ROOT
ATOM      1  O   HOH     1      -5.220   1.429   0.039  0.00  0.00    -0.410 OA
ATOM      2  H   HOH     0      -5.298   1.911  -0.344  0.00  0.00    +0.205 HD
ATOM      3  H   HOH     0      -5.712   1.106   0.235  0.00  0.00    +0.205 HD
ENDROOT
TORSDOF 0
ENDMDL
MODEL 8
REMARK VINA RESULT:       0.0     13.046     13.046
REMARK  Name = 962
REMARK  0 active torsions:
REMARK  status: ('A' for Active; 'I' for Inactive)
REMARK                            x       y       z     vdW  Elec       q    Type
REMARK                         _______ _______ _______ _____ _____    ______ ____
ROOT
ATOM      1  O   HOH     1      -5.356  -0.447   0.976  0.00  0.00    -0.410 OA
ATOM      2  H   HOH     0      -5.433   0.035   0.593  0.00  0.00    +0.205 HD
ATOM      3  H   HOH     0      -5.848  -0.770   1.171  0.00  0.00    +0.205 HD
ENDROOT
TORSDOF 0
ENDMDL
MODEL 9
REMARK VINA RESULT:       0.0     15.986     15.986
REMARK  Name = 962
REMARK  0 active torsions:
REMARK  status: ('A' for Active; 'I' for Inactive)
REMARK                            x       y       z     vdW  Elec       q    Type
REMARK                         _______ _______ _______ _____ _____    ______ ____
ROOT
ATOM      1  O   HOH     1       6.117  -8.470   1.441  0.00  0.00    -0.410 OA
ATOM      2  H   HOH     0       5.735  -8.294   0.985  0.00  0.00    +0.205 HD
ATOM      3  H   HOH     0       6.148  -9.066   1.607  0.00  0.00    +0.205 HD
ENDROOT
TORSDOF 0
ENDMDL
