MODEL 1
REMARK VINA RESULT:      -4.5      0.000      0.000
REMARK  Name = 2244
REMARK  5 active torsions:
REMARK  status: ('A' for Active; 'I' for Inactive)
REMARK    1  A    between atoms: O_1  and  C_5
REMARK    2  A    between atoms: O_1  and  C_12
REMARK    3  A    between atoms: O_2  and  C_11
REMARK    4  A    between atoms: C_6  and  C_11
REMARK    5  A    between atoms: C_12  and  C_13
REMARK                            x       y       z     vdW  Elec       q    Type
REMARK                         _______ _______ _______ _____ _____    ______ ____
ROOT
ATOM      1  C   UNL     1       9.327   5.386  -9.937  0.00  0.00    +0.146 A 
ATOM      2  C   UNL     1       8.584   6.041 -10.075  0.00  0.00    +0.101 A 
ATOM      3  C   UNL     1       9.273   4.719  -9.193  0.00  0.00    +0.047 A 
ATOM      4  C   UNL     1       7.788   6.029  -9.471  0.00  0.00    +0.018 A 
ATOM      5  C   UNL     1       8.477   4.708  -8.589  0.00  0.00    +0.004 A 
ATOM      6  C   UNL     1       7.734   5.363  -8.727  0.00  0.00    +0.001 A 
ENDROOT
BRANCH   2   8
ATOM      7  O   UNL     1       8.285   6.476 -11.725  0.00  0.00    -0.245 OA
ATOM      8  C   UNL     1       8.638   6.708 -10.819  0.00  0.00    +0.340 C 
BRANCH   8   9
ATOM      9  O   UNL     1       9.046   7.606 -10.656  0.00  0.00    -0.477 OA
ATOM     10  H   UNL     1       9.516   7.802 -11.010  0.00  0.00    +0.295 HD
ENDBRANCH   8   9
ENDBRANCH   2   8
BRANCH   1  11
ATOM     11  O   UNL     1      10.123   5.397 -10.541  0.00  0.00    -0.425 OA
BRANCH  11  13
ATOM     12  O   UNL     1      11.625   5.046  -9.752  0.00  0.00    -0.251 OA
ATOM     13  C   UNL     1      10.888   4.775 -10.372  0.00  0.00    +0.309 C 
ATOM     14  C   UNL     1      10.917   3.883 -10.823  0.00  0.00    +0.136 C 
ENDBRANCH  11  13
ENDBRANCH   1  11
TORSDOF 4
ENDMDL
MODEL 2
REMARK VINA RESULT:      -4.2      0.924      2.762
REMARK  Name = 2244
REMARK  5 active torsions:
REMARK  status: ('A' for Active; 'I' for Inactive)
REMARK    1  A    between atoms: O_1  and  C_5
REMARK    2  A    between atoms: O_1  and  C_12
REMARK    3  A    between atoms: O_2  and  C_11
REMARK    4  A    between atoms: C_6  and  C_11
REMARK    5  A    between atoms: C_12  and  C_13
REMARK                            x       y       z     vdW  Elec       q    Type
REMARK                         _______ _______ _______ _____ _____    ______ ____
ROOT
ATOM      1  C   UNL     1       9.552   4.964  -9.711  0.00  0.00    +0.146 A 
ATOM      2  C   UNL     1      10.327   4.437  -9.362  0.00  0.00    +0.101 A 
ATOM      3  C   UNL     1       8.697   4.998  -9.194  0.00  0.00    +0.047 A 
ATOM      4  C   UNL     1      10.247   3.945  -8.495  0.00  0.00    +0.018 A 
ATOM      5  C   UNL     1       8.617   4.506  -8.327  0.00  0.00    +0.004 A 
ATOM      6  C   UNL     1       9.391   3.980  -7.978  0.00  0.00    +0.001 A 
ENDROOT
BRANCH   2   8
ATOM      7  O   UNL     1      11.314   3.702 -10.581  0.00  0.00    -0.245 OA
ATOM      8  C   UNL     1      11.182   4.402  -9.879  0.00  0.00    +0.340 C 
BRANCH   8   9
ATOM      9  O   UNL     1      11.906   5.067  -9.694  0.00  0.00    -0.477 OA
ATOM     10  H   UNL     1      12.323   4.956  -9.250  0.00  0.00    +0.295 HD
ENDBRANCH   8   9
ENDBRANCH   2   8
BRANCH   1  11
ATOM     11  O   UNL     1       9.633   5.456 -10.578  0.00  0.00    -0.425 OA
BRANCH  11  13
ATOM     12  O   UNL     1       9.061   7.088 -10.482  0.00  0.00    -0.251 OA
ATOM     13  C   UNL     1       8.959   6.153 -10.822  0.00  0.00    +0.309 C 
ATOM     14  C   UNL     1       8.182   5.915 -11.406  0.00  0.00    +0.136 C 
ENDBRANCH  11  13
ENDBRANCH   1  11
TORSDOF 4
ENDMDL
MODEL 3
REMARK VINA RESULT:      -4.0      1.434      2.775
REMARK  Name = 2244
REMARK  5 active torsions:
REMARK  status: ('A' for Active; 'I' for Inactive)
REMARK    1  A    between atoms: O_1  and  C_5
REMARK    2  A    between atoms: O_1  and  C_12
REMARK    3  A    between atoms: O_2  and  C_11
REMARK    4  A    between atoms: C_6  and  C_11
REMARK    5  A    between atoms: C_12  and  C_13
REMARK                            x       y       z     vdW  Elec       q    Type
REMARK                         _______ _______ _______ _____ _____    ______ ____
ROOT
ATOM      1  C   UNL     1       8.351   5.727  -9.493  0.00  0.00    +0.146 A 
ATOM      2  C   UNL     1       8.883   5.985 -10.300  0.00  0.00    +0.101 A 
ATOM      3  C   UNL     1       8.621   4.931  -8.950  0.00  0.00    +0.047 A 
ATOM      4  C   UNL     1       9.684   5.448 -10.564  0.00  0.00    +0.018 A 
ATOM      5  C   UNL     1       9.423   4.395  -9.214  0.00  0.00    +0.004 A 
ATOM      6  C   UNL     1       9.954   4.653 -10.020  0.00  0.00    +0.001 A 
ENDROOT
BRANCH   2   8
ATOM      7  O   UNL     1       7.934   6.681 -11.571  0.00  0.00    -0.245 OA
ATOM      8  C   UNL     1       8.613   6.780 -10.843  0.00  0.00    +0.340 C 
BRANCH   8   9
ATOM      9  O   UNL     1       9.021   7.674 -10.658  0.00  0.00    -0.477 OA
ATOM     10  H   UNL     1       8.686   8.189 -10.735  0.00  0.00    +0.295 HD
ENDBRANCH   8   9
ENDBRANCH   2   8
BRANCH   1  11
ATOM     11  O   UNL     1       7.550   6.263  -9.229  0.00  0.00    -0.425 OA
BRANCH  11  13
ATOM     12  O   UNL     1       7.421   6.383  -7.506  0.00  0.00    -0.251 OA
ATOM     13  C   UNL     1       7.065   6.054  -8.380  0.00  0.00    +0.309 C 
ATOM     14  C   UNL     1       6.223   5.514  -8.406  0.00  0.00    +0.136 C 
ENDBRANCH  11  13
ENDBRANCH   1  11
TORSDOF 4
ENDMDL
MODEL 4
REMARK VINA RESULT:      -3.9      3.626      4.683
REMARK  Name = 2244
REMARK  5 active torsions:
REMARK  status: ('A' for Active; 'I' for Inactive)
REMARK    1  A    between atoms: O_1  and  C_5
REMARK    2  A    between atoms: O_1  and  C_12
REMARK    3  A    between atoms: O_2  and  C_11
REMARK    4  A    between atoms: C_6  and  C_11
REMARK    5  A    between atoms: C_12  and  C_13
REMARK                            x       y       z     vdW  Elec       q    Type
REMARK                         _______ _______ _______ _____ _____    ______ ____
ROOT
ATOM      1  C   UNL     1       6.753   6.396  -6.949  0.00  0.00    +0.146 A 
ATOM      2  C   UNL     1       6.683   6.708  -6.002  0.00  0.00    +0.101 A 
ATOM      3  C   UNL     1       5.986   6.529  -7.577  0.00  0.00    +0.047 A 
ATOM      4  C   UNL     1       5.847   7.154  -5.682  0.00  0.00    +0.018 A 
ATOM      5  C   UNL     1       5.149   6.974  -7.257  0.00  0.00    +0.004 A 
ATOM      6  C   UNL     1       5.080   7.286  -6.310  0.00  0.00    +0.001 A 
ENDROOT
BRANCH   2   8
ATOM      7  O   UNL     1       7.531   5.724  -4.856  0.00  0.00    -0.245 OA
ATOM      8  C   UNL     1       7.450   6.575  -5.374  0.00  0.00    +0.340 C 
BRANCH   8   9
ATOM      9  O   UNL     1       8.137   7.294  -5.264  0.00  0.00    -0.477 OA
ATOM     10  H   UNL     1       8.263   7.677  -5.735  0.00  0.00    +0.295 HD
ENDBRANCH   8   9
ENDBRANCH   2   8
BRANCH   1  11
ATOM     11  O   UNL     1       7.589   5.951  -7.269  0.00  0.00    -0.425 OA
BRANCH  11  13
ATOM     12  O   UNL     1       7.868   6.214  -8.958  0.00  0.00    -0.251 OA
ATOM     13  C   UNL     1       7.642   5.598  -8.203  0.00  0.00    +0.309 C 
ATOM     14  C   UNL     1       7.469   4.630  -8.383  0.00  0.00    +0.136 C 
ENDBRANCH  11  13
ENDBRANCH   1  11
TORSDOF 4
ENDMDL
MODEL 5
REMARK VINA RESULT:      -3.9      6.320      7.467
REMARK  Name = 2244
REMARK  5 active torsions:
REMARK  status: ('A' for Active; 'I' for Inactive)
REMARK    1  A    between atoms: O_1  and  C_5
REMARK    2  A    between atoms: O_1  and  C_12
REMARK    3  A    between atoms: O_2  and  C_11
REMARK    4  A    between atoms: C_6  and  C_11
REMARK    5  A    between atoms: C_12  and  C_13
REMARK                            x       y       z     vdW  Elec       q    Type
REMARK                         _______ _______ _______ _____ _____    ______ ____
ROOT
ATOM      1  C   UNL     1       7.106   6.739  -3.385  0.00  0.00    +0.146 A 
ATOM      2  C   UNL     1       7.597   6.603  -4.245  0.00  0.00    +0.101 A 
ATOM      3  C   UNL     1       6.144   6.475  -3.311  0.00  0.00    +0.047 A 
ATOM      4  C   UNL     1       7.126   6.203  -5.031  0.00  0.00    +0.018 A 
ATOM      5  C   UNL     1       5.673   6.075  -4.097  0.00  0.00    +0.004 A 
ATOM      6  C   UNL     1       6.164   5.939  -4.957  0.00  0.00    +0.001 A 
ENDROOT
BRANCH   2   8
ATOM      7  O   UNL     1       9.274   6.240  -4.012  0.00  0.00    -0.245 OA
ATOM      8  C   UNL     1       8.558   6.867  -4.319  0.00  0.00    +0.340 C 
BRANCH   8   9
ATOM      9  O   UNL     1       8.804   7.759  -4.701  0.00  0.00    -0.477 OA
ATOM     10  H   UNL     1       9.341   7.829  -5.002  0.00  0.00    +0.295 HD
ENDBRANCH   8   9
ENDBRANCH   2   8
BRANCH   1  11
ATOM     11  O   UNL     1       7.576   7.140  -2.598  0.00  0.00    -0.425 OA
BRANCH  11  13
ATOM     12  O   UNL     1       7.153   6.254  -1.171  0.00  0.00    -0.251 OA
ATOM     13  C   UNL     1       7.153   7.107  -1.693  0.00  0.00    +0.309 C 
ATOM     14  C   UNL     1       6.731   7.928  -1.309  0.00  0.00    +0.136 C 
ENDBRANCH  11  13
ENDBRANCH   1  11
TORSDOF 4
ENDMDL
MODEL 6
REMARK VINA RESULT:      -3.8      1.599      2.408
REMARK  Name = 2244
REMARK  5 active torsions:
REMARK  status: ('A' for Active; 'I' for Inactive)
REMARK    1  A    between atoms: O_1  and  C_5
REMARK    2  A    between atoms: O_1  and  C_12
REMARK    3  A    between atoms: O_2  and  C_11
REMARK    4  A    between atoms: C_6  and  C_11
REMARK    5  A    between atoms: C_12  and  C_13
REMARK                            x       y       z     vdW  Elec       q    Type
REMARK                         _______ _______ _______ _____ _____    ______ ____
ROOT
ATOM      1  C   UNL     1       9.406   4.880  -9.391  0.00  0.00    +0.146 A 
ATOM      2  C   UNL     1       8.651   4.877  -8.735  0.00  0.00    +0.101 A 
ATOM      3  C   UNL     1       9.347   5.438 -10.218  0.00  0.00    +0.047 A 
ATOM      4  C   UNL     1       7.837   5.432  -8.907  0.00  0.00    +0.018 A 
ATOM      5  C   UNL     1       8.534   5.994 -10.390  0.00  0.00    +0.004 A 
ATOM      6  C   UNL     1       7.779   5.991  -9.735  0.00  0.00    +0.001 A 
ENDROOT
BRANCH   2   8
ATOM      7  O   UNL     1       8.386   3.372  -7.920  0.00  0.00    -0.245 OA
ATOM      8  C   UNL     1       8.709   4.318  -7.908  0.00  0.00    +0.340 C 
BRANCH   8   9
ATOM      9  O   UNL     1       9.090   4.706  -7.069  0.00  0.00    -0.477 OA
ATOM     10  H   UNL     1       8.768   5.128  -6.748  0.00  0.00    +0.295 HD
ENDBRANCH   8   9
ENDBRANCH   2   8
BRANCH   1  11
ATOM     11  O   UNL     1      10.219   4.324  -9.219  0.00  0.00    -0.425 OA
BRANCH  11  13
ATOM     12  O   UNL     1      11.657   5.092  -9.804  0.00  0.00    -0.251 OA
ATOM     13  C   UNL     1      10.988   4.351  -9.858  0.00  0.00    +0.309 C 
ATOM     14  C   UNL     1      11.086   3.638 -10.552  0.00  0.00    +0.136 C 
ENDBRANCH  11  13
ENDBRANCH   1  11
TORSDOF 4
ENDMDL
MODEL 7
REMARK VINA RESULT:      -3.8      4.271      5.309
REMARK  Name = 2244
REMARK  5 active torsions:
REMARK  status: ('A' for Active; 'I' for Inactive)
REMARK    1  A    between atoms: O_1  and  C_5
REMARK    2  A    between atoms: O_1  and  C_12
REMARK    3  A    between atoms: O_2  and  C_11
REMARK    4  A    between atoms: C_6  and  C_11
REMARK    5  A    between atoms: C_12  and  C_13
REMARK                            x       y       z     vdW  Elec       q    Type
REMARK                         _______ _______ _______ _____ _____    ______ ____
ROOT
ATOM      1  C   UNL     1       7.083   5.695  -5.611  0.00  0.00    +0.146 A 
ATOM      2  C   UNL     1       7.184   6.311  -4.830  0.00  0.00    +0.101 A 
ATOM      3  C   UNL     1       6.186   5.316  -5.837  0.00  0.00    +0.047 A 
ATOM      4  C   UNL     1       6.387   6.548  -4.275  0.00  0.00    +0.018 A 
ATOM      5  C   UNL     1       5.389   5.553  -5.281  0.00  0.00    +0.004 A 
ATOM      6  C   UNL     1       5.489   6.169  -4.500  0.00  0.00    +0.001 A 
ENDROOT
BRANCH   2   8
ATOM      7  O   UNL     1       8.684   6.206  -3.971  0.00  0.00    -0.245 OA
ATOM      8  C   UNL     1       8.081   6.691  -4.605  0.00  0.00    +0.340 C 
BRANCH   8   9
ATOM      9  O   UNL     1       8.375   7.555  -5.013  0.00  0.00    -0.477 OA
ATOM     10  H   UNL     1       8.451   7.598  -5.627  0.00  0.00    +0.295 HD
ENDBRANCH   8   9
ENDBRANCH   2   8
BRANCH   1  11
ATOM     11  O   UNL     1       7.880   5.458  -6.167  0.00  0.00    -0.425 OA
BRANCH  11  13
ATOM     12  O   UNL     1       7.583   6.079  -7.757  0.00  0.00    -0.251 OA
ATOM     13  C   UNL     1       7.777   5.308  -7.150  0.00  0.00    +0.309 C 
ATOM     14  C   UNL     1       7.868   4.386  -7.527  0.00  0.00    +0.136 C 
ENDBRANCH  11  13
ENDBRANCH   1  11
TORSDOF 4
ENDMDL
MODEL 8
REMARK VINA RESULT:      -3.7      1.839      2.867
REMARK  Name = 2244
REMARK  5 active torsions:
REMARK  status: ('A' for Active; 'I' for Inactive)
REMARK    1  A    between atoms: O_1  and  C_5
REMARK    2  A    between atoms: O_1  and  C_12
REMARK    3  A    between atoms: O_2  and  C_11
REMARK    4  A    between atoms: C_6  and  C_11
REMARK    5  A    between atoms: C_12  and  C_13
REMARK                            x       y       z     vdW  Elec       q    Type
REMARK                         _______ _______ _______ _____ _____    ______ ____
ROOT
ATOM      1  C   UNL     1       9.650   4.618  -9.323  0.00  0.00    +0.146 A 
ATOM      2  C   UNL     1      10.231   4.904 -10.086  0.00  0.00    +0.101 A 
ATOM      3  C   UNL     1       8.716   4.966  -9.249  0.00  0.00    +0.047 A 
ATOM      4  C   UNL     1       9.877   5.538 -10.773  0.00  0.00    +0.018 A 
ATOM      5  C   UNL     1       8.362   5.600  -9.936  0.00  0.00    +0.004 A 
ATOM      6  C   UNL     1       8.943   5.886 -10.699  0.00  0.00    +0.001 A 
ENDROOT
BRANCH   2   8
ATOM      7  O   UNL     1      11.358   3.758 -10.733  0.00  0.00    -0.245 OA
ATOM      8  C   UNL     1      11.166   4.556 -10.160  0.00  0.00    +0.340 C 
BRANCH   8   9
ATOM      9  O   UNL     1      11.908   5.005  -9.662  0.00  0.00    -0.477 OA
ATOM     10  H   UNL     1      12.301   4.667  -9.323  0.00  0.00    +0.295 HD
ENDBRANCH   8   9
ENDBRANCH   2   8
BRANCH   1  11
ATOM     11  O   UNL     1      10.004   3.984  -8.636  0.00  0.00    -0.425 OA
BRANCH  11  13
ATOM     12  O   UNL     1       9.185   4.158  -7.120  0.00  0.00    -0.251 OA
ATOM     13  C   UNL     1       9.394   3.616  -7.934  0.00  0.00    +0.309 C 
ATOM     14  C   UNL     1       8.993   2.707  -8.046  0.00  0.00    +0.136 C 
ENDBRANCH  11  13
ENDBRANCH   1  11
TORSDOF 4
ENDMDL
MODEL 9
REMARK VINA RESULT:      -3.5      3.830      5.062
REMARK  Name = 2244
REMARK  5 active torsions:
REMARK  status: ('A' for Active; 'I' for Inactive)
REMARK    1  A    between atoms: O_1  and  C_5
REMARK    2  A    between atoms: O_1  and  C_12
REMARK    3  A    between atoms: O_2  and  C_11
REMARK    4  A    between atoms: C_6  and  C_11
REMARK    5  A    between atoms: C_12  and  C_13
REMARK                            x       y       z     vdW  Elec       q    Type
REMARK                         _______ _______ _______ _____ _____    ______ ____
ROOT
ATOM      1  C   UNL     1       7.110   6.141  -6.090  0.00  0.00    +0.146 A 
ATOM      2  C   UNL     1       7.160   5.671  -6.971  0.00  0.00    +0.101 A 
ATOM      3  C   UNL     1       6.388   6.813  -5.922  0.00  0.00    +0.047 A 
ATOM      4  C   UNL     1       6.488   5.873  -7.684  0.00  0.00    +0.018 A 
ATOM      5  C   UNL     1       5.717   7.014  -6.635  0.00  0.00    +0.004 A 
ATOM      6  C   UNL     1       5.767   6.544  -7.516  0.00  0.00    +0.001 A 
ENDROOT
BRANCH   2   8
ATOM      7  O   UNL     1       7.767   4.055  -6.832  0.00  0.00    -0.245 OA
ATOM      8  C   UNL     1       7.882   5.000  -7.139  0.00  0.00    +0.340 C 
BRANCH   8   9
ATOM      9  O   UNL     1       8.718   5.273  -7.615  0.00  0.00    -0.477 OA
ATOM     10  H   UNL     1       9.269   5.196  -7.342  0.00  0.00    +0.295 HD
ENDBRANCH   8   9
ENDBRANCH   2   8
BRANCH   1  11
ATOM     11  O   UNL     1       7.781   5.940  -5.377  0.00  0.00    -0.425 OA
BRANCH  11  13
ATOM     12  O   UNL     1       8.412   7.414  -4.724  0.00  0.00    -0.251 OA
ATOM     13  C   UNL     1       7.895   6.567  -4.606  0.00  0.00    +0.309 C 
ATOM     14  C   UNL     1       7.493   6.345  -3.718  0.00  0.00    +0.136 C 
ENDBRANCH  11  13
ENDBRANCH   1  11
TORSDOF 4
ENDMDL
