MODEL 1
REMARK VINA RESULT:      -1.4      0.000      0.000
REMARK  Name = 962
REMARK  0 active torsions:
REMARK  status: ('A' for Active; 'I' for Inactive)
REMARK                            x       y       z     vdW  Elec       q    Type
REMARK                         _______ _______ _______ _____ _____    ______ ____
ROOT
ATOM      1  O   HOH     1       9.087   7.859 -10.698  0.00  0.00    -0.410 OA
ATOM      2  H   HOH     0       8.727   8.101 -10.255  0.00  0.00    +0.205 HD
ATOM      3  H   HOH     0       9.697   7.972 -10.698  0.00  0.00    +0.205 HD
ENDROOT
TORSDOF 0
ENDMDL
MODEL 2
REMARK VINA RESULT:      -1.2      5.721      5.721
REMARK  Name = 962
REMARK  0 active torsions:
REMARK  status: ('A' for Active; 'I' for Inactive)
REMARK                            x       y       z     vdW  Elec       q    Type
REMARK                         _______ _______ _______ _____ _____    ______ ____
ROOT
ATOM      1  O   HOH     1       8.367   7.510  -5.034  0.00  0.00    -0.410 OA
ATOM      2  H   HOH     0       7.869   7.332  -5.357  0.00  0.00    +0.205 HD
ATOM      3  H   HOH     0       8.936   7.425  -5.267  0.00  0.00    +0.205 HD
ENDROOT
TORSDOF 0
ENDMDL
MODEL 3
REMARK VINA RESULT:      -0.8      9.246      9.246
REMARK  Name = 962
REMARK  0 active torsions:
REMARK  status: ('A' for Active; 'I' for Inactive)
REMARK                            x       y       z     vdW  Elec       q    Type
REMARK                         _______ _______ _______ _____ _____    ______ ____
ROOT
ATOM      1  O   HOH     1       8.910   8.177  -1.459  0.00  0.00    -0.410 OA
ATOM      2  H   HOH     0       8.979   7.598  -1.246  0.00  0.00    +0.205 HD
ATOM      3  H   HOH     0       9.178   8.651  -1.162  0.00  0.00    +0.205 HD
ENDROOT
TORSDOF 0
ENDMDL
MODEL 4
REMARK VINA RESULT:      -0.7      2.803      2.803
REMARK  Name = 962
REMARK  0 active torsions:
REMARK  status: ('A' for Active; 'I' for Inactive)
REMARK                            x       y       z     vdW  Elec       q    Type
REMARK                         _______ _______ _______ _____ _____    ______ ____
ROOT
ATOM      1  O   HOH     1       7.417   6.638  -8.806  0.00  0.00    -0.410 OA
ATOM      2  H   HOH     0       7.784   7.133  -8.737  0.00  0.00    +0.205 HD
ATOM      3  H   HOH     0       7.322   6.254  -8.329  0.00  0.00    +0.205 HD
ENDROOT
TORSDOF 0
ENDMDL
MODEL 5
REMARK VINA RESULT:      -0.6      7.834      7.834
REMARK  Name = 962
REMARK  0 active torsions:
REMARK  status: ('A' for Active; 'I' for Inactive)
REMARK                            x       y       z     vdW  Elec       q    Type
REMARK                         _______ _______ _______ _____ _____    ______ ____
ROOT
ATOM      1  O   HOH     1       7.831   5.637  -3.291  0.00  0.00    -0.410 OA
ATOM      2  H   HOH     0       7.900   5.059  -3.078  0.00  0.00    +0.205 HD
ATOM      3  H   HOH     0       8.099   6.111  -2.994  0.00  0.00    +0.205 HD
ENDROOT
TORSDOF 0
ENDMDL
MODEL 6
REMARK VINA RESULT:      -0.6      9.202      9.202
REMARK  Name = 962
REMARK  0 active torsions:
REMARK  status: ('A' for Active; 'I' for Inactive)
REMARK                            x       y       z     vdW  Elec       q    Type
REMARK                         _______ _______ _______ _____ _____    ______ ____
ROOT
ATOM      1  O   HOH     1       5.791   8.176  -2.112  0.00  0.00    -0.410 OA
ATOM      2  H   HOH     0       5.742   7.655  -1.780  0.00  0.00    +0.205 HD
ATOM      3  H   HOH     0       6.089   8.171  -2.656  0.00  0.00    +0.205 HD
ENDROOT
TORSDOF 0
ENDMDL
MODEL 7
REMARK VINA RESULT:      -0.6     10.345     10.345
REMARK  Name = 962
REMARK  0 active torsions:
REMARK  status: ('A' for Active; 'I' for Inactive)
REMARK                            x       y       z     vdW  Elec       q    Type
REMARK                         _______ _______ _______ _____ _____    ______ ____
ROOT
ATOM      1  O   HOH     1       9.035   2.995  -1.568  0.00  0.00    -0.410 OA
ATOM      2  H   HOH     0       9.104   2.416  -1.355  0.00  0.00    +0.205 HD
ATOM      3  H   HOH     0       9.303   3.468  -1.271  0.00  0.00    +0.205 HD
ENDROOT
TORSDOF 0
ENDMDL
MODEL 8
REMARK VINA RESULT:      -0.5     15.545     15.545
REMARK  Name = 962
REMARK  0 active torsions:
REMARK  status: ('A' for Active; 'I' for Inactive)
REMARK                            x       y       z     vdW  Elec       q    Type
REMARK                         _______ _______ _______ _____ _____    ______ ____
ROOT
ATOM      1  O   HOH     1       8.910   8.177   4.842  0.00  0.00    -0.410 OA
ATOM      2  H   HOH     0       8.549   8.419   5.285  0.00  0.00    +0.205 HD
ATOM      3  H   HOH     0       9.519   8.290   4.842  0.00  0.00    +0.205 HD
ENDROOT
TORSDOF 0
ENDMDL
MODEL 9
REMARK VINA RESULT:      -0.4     11.175     11.175
REMARK  Name = 962
REMARK  0 active torsions:
REMARK  status: ('A' for Active; 'I' for Inactive)
REMARK                            x       y       z     vdW  Elec       q    Type
REMARK                         _______ _______ _______ _____ _____    ______ ____
ROOT
ATOM      1  O   HOH     1       7.744   8.177   0.392  0.00  0.00    -0.410 OA
ATOM      2  H   HOH     0       8.112   8.671   0.461  0.00  0.00    +0.205 HD
ATOM      3  H   HOH     0       7.649   7.792   0.869  0.00  0.00    +0.205 HD
ENDROOT
TORSDOF 0
ENDMDL
