REMARK  Name = 7991
REMARK  5 active torsions:
REMARK  status: ('A' for Active; 'I' for Inactive)
REMARK    1  A    between atoms: O_1  and  C_7
REMARK    2  A    between atoms: C_3  and  C_4
REMARK    3  A    between atoms: C_3  and  C_5
REMARK    4  A    between atoms: C_4  and  C_6
REMARK    5  A    between atoms: C_5  and  C_7
REMARK                            x       y       z     vdW  Elec       q    Type
REMARK                         _______ _______ _______ _____ _____    ______ ____
ROOT
ATOM      1  C   UNL     1       4.269   0.750   0.000  0.00  0.00    +0.120 C 
ENDROOT
BRANCH   1   3
ATOM      2  O   UNL     1       3.403  -0.750   0.000  0.00  0.00    -0.251 OA
ATOM      3  C   UNL     1       3.403   0.250   0.000  0.00  0.00    +0.305 C 
BRANCH   3   4
ATOM      4  O   UNL     1       2.537   0.750   0.000  0.00  0.00    -0.481 OA
ATOM      5  H   UNL     1       2.000   0.440   0.000  0.00  0.00    +0.295 HD
ENDBRANCH   3   4
ENDBRANCH   1   3
BRANCH   1   6
ATOM      6  C   UNL     1       5.135   0.250   0.000  0.00  0.00    +0.011 C 
BRANCH   6   7
ATOM      7  C   UNL     1       6.001   0.750   0.000  0.00  0.00    -0.003 C 
ATOM      8  C   UNL     1       6.867   0.250   0.000  0.00  0.00    +0.004 C 
ENDBRANCH   6   7
ENDBRANCH   1   6
TORSDOF 4
