MODEL 1
REMARK VINA RESULT:      -4.1      0.000      0.000
REMARK  Name = 3672
REMARK  8 active torsions:
REMARK  status: ('A' for Active; 'I' for Inactive)
REMARK    1  A    between atoms: O_1  and  C_15
REMARK    2  A    between atoms: C_3  and  C_4
REMARK    3  A    between atoms: C_3  and  C_8
REMARK    4  A    between atoms: C_3  and  C_9
REMARK    5  A    between atoms: C_4  and  C_5
REMARK    6  A    between atoms: C_6  and  C_7
REMARK    7  A    between atoms: C_7  and  C_14
REMARK    8  A    between atoms: C_7  and  C_15
REMARK                            x       y       z     vdW  Elec       q    Type
REMARK                         _______ _______ _______ _____ _____    ______ ____
ROOT
ATOM      1  C   UNL     1       9.866   4.116  -8.689  0.00  0.00    -0.047 A 
ATOM      2  C   UNL     1       9.440   5.320 -10.229  0.00  0.00    -0.034 A 
ATOM      3  C   UNL     1      10.506   4.195  -9.454  0.00  0.00    +0.004 A 
ATOM      4  C   UNL     1       9.014   4.639  -8.694  0.00  0.00    +0.004 A 
ATOM      5  C   UNL     1      10.292   4.797 -10.224  0.00  0.00    +0.005 A 
ATOM      6  C   UNL     1       8.801   5.240  -9.464  0.00  0.00    +0.005 A 
ENDROOT
BRANCH   2   7
ATOM      7  C   UNL     1       9.227   5.921 -10.998  0.00  0.00    +0.124 C 
ATOM      8  C   UNL     1       8.615   5.607 -11.724  0.00  0.00    +0.024 C 
BRANCH   7  10
ATOM      9  O   UNL     1      10.540   6.968 -11.423  0.00  0.00    -0.250 OA
ATOM     10  C   UNL     1       9.625   6.838 -11.042  0.00  0.00    +0.312 C 
BRANCH  10  11
ATOM     11  O   UNL     1       9.108   7.624 -10.703  0.00  0.00    -0.480 OA
ATOM     12  H   UNL     1       9.347   7.984 -10.258  0.00  0.00    +0.295 HD
ENDBRANCH  10  11
ENDBRANCH   7  10
ENDBRANCH   2   7
BRANCH   1  13
ATOM     13  C   UNL     1      10.079   3.514  -7.920  0.00  0.00    +0.038 C 
BRANCH  13  14
ATOM     14  C   UNL     1       9.785   2.558  -7.936  0.00  0.00    -0.013 C 
ATOM     15  C   UNL     1       8.897   2.302  -7.555  0.00  0.00    +0.007 C 
ATOM     16  C   UNL     1      10.379   1.859  -8.333  0.00  0.00    +0.007 C 
ENDBRANCH  13  14
ENDBRANCH   1  13
TORSDOF 5
ENDMDL
MODEL 2
REMARK VINA RESULT:      -3.9      3.595      5.018
REMARK  Name = 3672
REMARK  8 active torsions:
REMARK  status: ('A' for Active; 'I' for Inactive)
REMARK    1  A    between atoms: O_1  and  C_15
REMARK    2  A    between atoms: C_3  and  C_4
REMARK    3  A    between atoms: C_3  and  C_8
REMARK    4  A    between atoms: C_3  and  C_9
REMARK    5  A    between atoms: C_4  and  C_5
REMARK    6  A    between atoms: C_6  and  C_7
REMARK    7  A    between atoms: C_7  and  C_14
REMARK    8  A    between atoms: C_7  and  C_15
REMARK                            x       y       z     vdW  Elec       q    Type
REMARK                         _______ _______ _______ _____ _____    ______ ____
ROOT
ATOM      1  C   UNL     1       7.346   5.476  -8.137  0.00  0.00    -0.047 A 
ATOM      2  C   UNL     1       7.205   6.047  -6.225  0.00  0.00    -0.034 A 
ATOM      3  C   UNL     1       7.874   5.001  -7.433  0.00  0.00    +0.004 A 
ATOM      4  C   UNL     1       6.747   6.237  -7.885  0.00  0.00    +0.004 A 
ATOM      5  C   UNL     1       7.803   5.286  -6.477  0.00  0.00    +0.005 A 
ATOM      6  C   UNL     1       6.677   6.522  -6.929  0.00  0.00    +0.005 A 
ENDROOT
BRANCH   2   7
ATOM      7  C   UNL     1       7.134   6.332  -5.269  0.00  0.00    +0.124 C 
ATOM      8  C   UNL     1       6.256   6.277  -4.795  0.00  0.00    +0.024 C 
BRANCH   7  10
ATOM      9  O   UNL     1       8.359   6.126  -4.062  0.00  0.00    -0.250 OA
ATOM     10  C   UNL     1       7.942   6.672  -4.788  0.00  0.00    +0.312 C 
BRANCH  10  11
ATOM     11  O   UNL     1       8.334   7.559  -5.034  0.00  0.00    -0.480 OA
ATOM     12  H   UNL     1       7.961   8.041  -5.151  0.00  0.00    +0.295 HD
ENDBRANCH  10  11
ENDBRANCH   7  10
ENDBRANCH   2   7
BRANCH   1  13
ATOM     13  C   UNL     1       7.416   5.191  -9.093  0.00  0.00    +0.038 C 
BRANCH  13  14
ATOM     14  C   UNL     1       8.132   5.573  -9.677  0.00  0.00    -0.013 C 
ATOM     15  C   UNL     1       9.036   5.146  -9.703  0.00  0.00    +0.007 C 
ATOM     16  C   UNL     1       7.945   6.381 -10.235  0.00  0.00    +0.007 C 
ENDBRANCH  13  14
ENDBRANCH   1  13
TORSDOF 5
ENDMDL
MODEL 3
REMARK VINA RESULT:      -3.8      2.275      3.294
REMARK  Name = 3672
REMARK  8 active torsions:
REMARK  status: ('A' for Active; 'I' for Inactive)
REMARK    1  A    between atoms: O_1  and  C_15
REMARK    2  A    between atoms: C_3  and  C_4
REMARK    3  A    between atoms: C_3  and  C_8
REMARK    4  A    between atoms: C_3  and  C_9
REMARK    5  A    between atoms: C_4  and  C_5
REMARK    6  A    between atoms: C_6  and  C_7
REMARK    7  A    between atoms: C_7  and  C_14
REMARK    8  A    between atoms: C_7  and  C_15
REMARK                            x       y       z     vdW  Elec       q    Type
REMARK                         _______ _______ _______ _____ _____    ______ ____
ROOT
ATOM      1  C   UNL     1       7.041   5.648  -8.023  0.00  0.00    -0.047 A 
ATOM      2  C   UNL     1       7.888   5.959  -9.808  0.00  0.00    -0.034 A 
ATOM      3  C   UNL     1       6.592   6.239  -8.693  0.00  0.00    +0.004 A 
ATOM      4  C   UNL     1       7.913   5.213  -8.246  0.00  0.00    +0.004 A 
ATOM      5  C   UNL     1       7.015   6.395  -9.586  0.00  0.00    +0.005 A 
ATOM      6  C   UNL     1       8.337   5.368  -9.138  0.00  0.00    +0.005 A 
ENDROOT
BRANCH   2   7
ATOM      7  C   UNL     1       8.311   6.115 -10.701  0.00  0.00    +0.124 C 
ATOM      8  C   UNL     1       7.929   5.682 -11.518  0.00  0.00    +0.024 C 
BRANCH   7  10
ATOM      9  O   UNL     1      10.023   6.298 -10.892  0.00  0.00    -0.250 OA
ATOM     10  C   UNL     1       9.116   6.703 -10.777  0.00  0.00    +0.312 C 
BRANCH  10  11
ATOM     11  O   UNL     1       9.014   7.698 -10.737  0.00  0.00    -0.480 OA
ATOM     12  H   UNL     1       8.650   7.988 -11.146  0.00  0.00    +0.295 HD
ENDBRANCH  10  11
ENDBRANCH   7  10
ENDBRANCH   2   7
BRANCH   1  13
ATOM     13  C   UNL     1       6.618   5.493  -7.131  0.00  0.00    +0.038 C 
BRANCH  13  14
ATOM     14  C   UNL     1       6.695   6.185  -6.413  0.00  0.00    -0.013 C 
ATOM     15  C   UNL     1       7.475   6.172  -5.787  0.00  0.00    +0.007 C 
ATOM     16  C   UNL     1       5.992   6.891  -6.322  0.00  0.00    +0.007 C 
ENDBRANCH  13  14
ENDBRANCH   1  13
TORSDOF 5
ENDMDL
MODEL 4
REMARK VINA RESULT:      -3.7      7.501      8.423
REMARK  Name = 3672
REMARK  8 active torsions:
REMARK  status: ('A' for Active; 'I' for Inactive)
REMARK    1  A    between atoms: O_1  and  C_15
REMARK    2  A    between atoms: C_3  and  C_4
REMARK    3  A    between atoms: C_3  and  C_8
REMARK    4  A    between atoms: C_3  and  C_9
REMARK    5  A    between atoms: C_4  and  C_5
REMARK    6  A    between atoms: C_6  and  C_7
REMARK    7  A    between atoms: C_7  and  C_14
REMARK    8  A    between atoms: C_7  and  C_15
REMARK                            x       y       z     vdW  Elec       q    Type
REMARK                         _______ _______ _______ _____ _____    ______ ____
ROOT
ATOM      1  C   UNL     1       6.679   6.720  -0.998  0.00  0.00    -0.047 A 
ATOM      2  C   UNL     1       7.055   6.514  -2.951  0.00  0.00    -0.034 A 
ATOM      3  C   UNL     1       6.920   7.520  -1.547  0.00  0.00    +0.004 A 
ATOM      4  C   UNL     1       6.626   5.817  -1.425  0.00  0.00    +0.004 A 
ATOM      5  C   UNL     1       7.109   7.417  -2.524  0.00  0.00    +0.005 A 
ATOM      6  C   UNL     1       6.814   5.714  -2.402  0.00  0.00    +0.005 A 
ENDROOT
BRANCH   2   7
ATOM      7  C   UNL     1       7.244   6.411  -3.928  0.00  0.00    +0.124 C 
ATOM      8  C   UNL     1       6.534   6.062  -4.540  0.00  0.00    +0.024 C 
BRANCH   7  10
ATOM      9  O   UNL     1       8.953   6.145  -4.012  0.00  0.00    -0.250 OA
ATOM     10  C   UNL     1       8.141   6.657  -4.293  0.00  0.00    +0.312 C 
BRANCH  10  11
ATOM     11  O   UNL     1       8.228   7.416  -4.938  0.00  0.00    -0.480 OA
ATOM     12  H   UNL     1       8.776   7.695  -5.017  0.00  0.00    +0.295 HD
ENDBRANCH  10  11
ENDBRANCH   7  10
ENDBRANCH   2   7
BRANCH   1  13
ATOM     13  C   UNL     1       6.491   6.823  -0.021  0.00  0.00    +0.038 C 
BRANCH  13  14
ATOM     14  C   UNL     1       7.247   6.915   0.627  0.00  0.00    -0.013 C 
ATOM     15  C   UNL     1       7.568   7.824   0.893  0.00  0.00    +0.007 C 
ATOM     16  C   UNL     1       7.681   6.100   1.008  0.00  0.00    +0.007 C 
ENDBRANCH  13  14
ENDBRANCH   1  13
TORSDOF 5
ENDMDL
MODEL 5
REMARK VINA RESULT:      -3.7      4.104      5.593
REMARK  Name = 3672
REMARK  8 active torsions:
REMARK  status: ('A' for Active; 'I' for Inactive)
REMARK    1  A    between atoms: O_1  and  C_15
REMARK    2  A    between atoms: C_3  and  C_4
REMARK    3  A    between atoms: C_3  and  C_8
REMARK    4  A    between atoms: C_3  and  C_9
REMARK    5  A    between atoms: C_4  and  C_5
REMARK    6  A    between atoms: C_6  and  C_7
REMARK    7  A    between atoms: C_7  and  C_14
REMARK    8  A    between atoms: C_7  and  C_15
REMARK                            x       y       z     vdW  Elec       q    Type
REMARK                         _______ _______ _______ _____ _____    ______ ____
ROOT
ATOM      1  C   UNL     1       6.539   5.787  -7.591  0.00  0.00    -0.047 A 
ATOM      2  C   UNL     1       7.049   6.263  -5.717  0.00  0.00    -0.034 A 
ATOM      3  C   UNL     1       7.242   5.259  -7.115  0.00  0.00    +0.004 A 
ATOM      4  C   UNL     1       6.090   6.552  -7.130  0.00  0.00    +0.004 A 
ATOM      5  C   UNL     1       7.497   5.497  -6.178  0.00  0.00    +0.005 A 
ATOM      6  C   UNL     1       6.345   6.790  -6.193  0.00  0.00    +0.005 A 
ENDROOT
BRANCH   2   7
ATOM      7  C   UNL     1       7.304   6.500  -4.779  0.00  0.00    +0.124 C 
ATOM      8  C   UNL     1       6.627   6.439  -4.046  0.00  0.00    +0.024 C 
BRANCH   7  10
ATOM      9  O   UNL     1       8.849   6.207  -4.054  0.00  0.00    -0.250 OA
ATOM     10  C   UNL     1       8.236   6.800  -4.575  0.00  0.00    +0.312 C 
BRANCH  10  11
ATOM     11  O   UNL     1       8.555   7.693  -4.893  0.00  0.00    -0.480 OA
ATOM     12  H   UNL     1       8.264   8.209  -4.710  0.00  0.00    +0.295 HD
ENDBRANCH  10  11
ENDBRANCH   7  10
ENDBRANCH   2   7
BRANCH   1  13
ATOM     13  C   UNL     1       6.284   5.549  -8.528  0.00  0.00    +0.038 C 
BRANCH  13  14
ATOM     14  C   UNL     1       6.585   6.123  -9.289  0.00  0.00    -0.013 C 
ATOM     15  C   UNL     1       7.536   6.086  -9.598  0.00  0.00    +0.007 C 
ATOM     16  C   UNL     1       5.936   6.734  -9.742  0.00  0.00    +0.007 C 
ENDBRANCH  13  14
ENDBRANCH   1  13
TORSDOF 5
ENDMDL
MODEL 6
REMARK VINA RESULT:      -3.6     12.471     13.528
REMARK  Name = 3672
REMARK  8 active torsions:
REMARK  status: ('A' for Active; 'I' for Inactive)
REMARK    1  A    between atoms: O_1  and  C_15
REMARK    2  A    between atoms: C_3  and  C_4
REMARK    3  A    between atoms: C_3  and  C_8
REMARK    4  A    between atoms: C_3  and  C_9
REMARK    5  A    between atoms: C_4  and  C_5
REMARK    6  A    between atoms: C_6  and  C_7
REMARK    7  A    between atoms: C_7  and  C_14
REMARK    8  A    between atoms: C_7  and  C_15
REMARK                            x       y       z     vdW  Elec       q    Type
REMARK                         _______ _______ _______ _____ _____    ______ ____
ROOT
ATOM      1  C   UNL     1       7.844   7.370   4.622  0.00  0.00    -0.047 A 
ATOM      2  C   UNL     1       7.356   7.376   2.682  0.00  0.00    -0.034 A 
ATOM      3  C   UNL     1       7.686   6.507   4.143  0.00  0.00    +0.004 A 
ATOM      4  C   UNL     1       7.757   8.237   4.130  0.00  0.00    +0.004 A 
ATOM      5  C   UNL     1       7.442   6.509   3.174  0.00  0.00    +0.005 A 
ATOM      6  C   UNL     1       7.513   8.240   3.160  0.00  0.00    +0.005 A 
ENDROOT
BRANCH   2   7
ATOM      7  C   UNL     1       7.112   7.378   1.712  0.00  0.00    +0.124 C 
ATOM      8  C   UNL     1       6.151   7.331   1.438  0.00  0.00    +0.024 C 
BRANCH   7  10
ATOM      9  O   UNL     1       8.221   6.588   0.642  0.00  0.00    -0.250 OA
ATOM     10  C   UNL     1       7.828   7.428   1.017  0.00  0.00    +0.312 C 
BRANCH  10  11
ATOM     11  O   UNL     1       8.153   8.318   0.696  0.00  0.00    -0.480 OA
ATOM     12  H   UNL     1       7.774   8.808   0.706  0.00  0.00    +0.295 HD
ENDBRANCH  10  11
ENDBRANCH   7  10
ENDBRANCH   2   7
BRANCH   1  13
ATOM     13  C   UNL     1       8.088   7.368   5.591  0.00  0.00    +0.038 C 
BRANCH  13  14
ATOM     14  C   UNL     1       9.042   7.253   5.867  0.00  0.00    -0.013 C 
ATOM     15  C   UNL     1       9.628   8.054   5.988  0.00  0.00    +0.007 C 
ATOM     16  C   UNL     1       9.411   6.336   6.021  0.00  0.00    +0.007 C 
ENDBRANCH  13  14
ENDBRANCH   1  13
TORSDOF 5
ENDMDL
MODEL 7
REMARK VINA RESULT:      -3.6      4.507      5.915
REMARK  Name = 3672
REMARK  8 active torsions:
REMARK  status: ('A' for Active; 'I' for Inactive)
REMARK    1  A    between atoms: O_1  and  C_15
REMARK    2  A    between atoms: C_3  and  C_4
REMARK    3  A    between atoms: C_3  and  C_8
REMARK    4  A    between atoms: C_3  and  C_9
REMARK    5  A    between atoms: C_4  and  C_5
REMARK    6  A    between atoms: C_6  and  C_7
REMARK    7  A    between atoms: C_7  and  C_14
REMARK    8  A    between atoms: C_7  and  C_15
REMARK                            x       y       z     vdW  Elec       q    Type
REMARK                         _______ _______ _______ _____ _____    ______ ____
ROOT
ATOM      1  C   UNL     1       6.347   6.327  -7.430  0.00  0.00    -0.047 A 
ATOM      2  C   UNL     1       7.073   6.409  -5.568  0.00  0.00    -0.034 A 
ATOM      3  C   UNL     1       5.924   6.931  -6.755  0.00  0.00    +0.004 A 
ATOM      4  C   UNL     1       7.133   5.764  -7.174  0.00  0.00    +0.004 A 
ATOM      5  C   UNL     1       6.287   6.972  -5.824  0.00  0.00    +0.005 A 
ATOM      6  C   UNL     1       7.496   5.805  -6.243  0.00  0.00    +0.005 A 
ENDROOT
BRANCH   2   7
ATOM      7  C   UNL     1       7.436   6.450  -4.637  0.00  0.00    +0.124 C 
ATOM      8  C   UNL     1       6.881   6.128  -3.870  0.00  0.00    +0.024 C 
BRANCH   7  10
ATOM      9  O   UNL     1       9.042   6.246  -4.022  0.00  0.00    -0.250 OA
ATOM     10  C   UNL     1       8.353   6.813  -4.473  0.00  0.00    +0.312 C 
BRANCH  10  11
ATOM     11  O   UNL     1       8.581   7.743  -4.761  0.00  0.00    -0.480 OA
ATOM     12  H   UNL     1       8.425   8.225  -4.403  0.00  0.00    +0.295 HD
ENDBRANCH  10  11
ENDBRANCH   7  10
ENDBRANCH   2   7
BRANCH   1  13
ATOM     13  C   UNL     1       5.985   6.286  -8.361  0.00  0.00    +0.038 C 
BRANCH  13  14
ATOM     14  C   UNL     1       5.096   5.861  -8.533  0.00  0.00    -0.013 C 
ATOM     15  C   UNL     1       4.282   6.431  -8.645  0.00  0.00    +0.007 C 
ATOM     16  C   UNL     1       5.021   4.866  -8.593  0.00  0.00    +0.007 C 
ENDBRANCH  13  14
ENDBRANCH   1  13
TORSDOF 5
ENDMDL
MODEL 8
REMARK VINA RESULT:      -3.5      2.192      3.427
REMARK  Name = 3672
REMARK  8 active torsions:
REMARK  status: ('A' for Active; 'I' for Inactive)
REMARK    1  A    between atoms: O_1  and  C_15
REMARK    2  A    between atoms: C_3  and  C_4
REMARK    3  A    between atoms: C_3  and  C_8
REMARK    4  A    between atoms: C_3  and  C_9
REMARK    5  A    between atoms: C_4  and  C_5
REMARK    6  A    between atoms: C_6  and  C_7
REMARK    7  A    between atoms: C_7  and  C_14
REMARK    8  A    between atoms: C_7  and  C_15
REMARK                            x       y       z     vdW  Elec       q    Type
REMARK                         _______ _______ _______ _____ _____    ______ ____
ROOT
ATOM      1  C   UNL     1      10.118   4.408  -9.403  0.00  0.00    -0.047 A 
ATOM      2  C   UNL     1       8.572   4.666  -8.160  0.00  0.00    -0.034 A 
ATOM      3  C   UNL     1      10.124   3.976  -8.502  0.00  0.00    +0.004 A 
ATOM      4  C   UNL     1       9.339   4.970  -9.683  0.00  0.00    +0.004 A 
ATOM      5  C   UNL     1       9.351   4.104  -7.880  0.00  0.00    +0.005 A 
ATOM      6  C   UNL     1       8.566   5.098  -9.062  0.00  0.00    +0.005 A 
ENDROOT
BRANCH   2   7
ATOM      7  C   UNL     1       7.800   4.794  -7.538  0.00  0.00    +0.124 C 
ATOM      8  C   UNL     1       7.087   4.096  -7.476  0.00  0.00    +0.024 C 
BRANCH   7  10
ATOM      9  O   UNL     1       7.180   6.392  -7.285  0.00  0.00    -0.250 OA
ATOM     10  C   UNL     1       7.740   5.622  -6.980  0.00  0.00    +0.312 C 
BRANCH  10  11
ATOM     11  O   UNL     1       8.240   5.679  -6.116  0.00  0.00    -0.480 OA
ATOM     12  H   UNL     1       8.015   6.020  -5.649  0.00  0.00    +0.295 HD
ENDBRANCH  10  11
ENDBRANCH   7  10
ENDBRANCH   2   7
BRANCH   1  13
ATOM     13  C   UNL     1      10.890   4.280 -10.025  0.00  0.00    +0.038 C 
BRANCH  13  14
ATOM     14  C   UNL     1      10.788   3.706 -10.838  0.00  0.00    -0.013 C 
ATOM     15  C   UNL     1      10.586   4.125 -11.723  0.00  0.00    +0.007 C 
ATOM     16  C   UNL     1      10.888   2.714 -10.765  0.00  0.00    +0.007 C 
ENDBRANCH  13  14
ENDBRANCH   1  13
TORSDOF 5
ENDMDL
MODEL 9
REMARK VINA RESULT:      -3.4     13.120     14.390
REMARK  Name = 3672
REMARK  8 active torsions:
REMARK  status: ('A' for Active; 'I' for Inactive)
REMARK    1  A    between atoms: O_1  and  C_15
REMARK    2  A    between atoms: C_3  and  C_4
REMARK    3  A    between atoms: C_3  and  C_8
REMARK    4  A    between atoms: C_3  and  C_9
REMARK    5  A    between atoms: C_4  and  C_5
REMARK    6  A    between atoms: C_6  and  C_7
REMARK    7  A    between atoms: C_7  and  C_14
REMARK    8  A    between atoms: C_7  and  C_15
REMARK                            x       y       z     vdW  Elec       q    Type
REMARK                         _______ _______ _______ _____ _____    ______ ____
ROOT
ATOM      1  C   UNL     1       7.176   7.443   2.982  0.00  0.00    -0.047 A 
ATOM      2  C   UNL     1       7.970   7.531   4.816  0.00  0.00    -0.034 A 
ATOM      3  C   UNL     1       7.480   8.320   3.353  0.00  0.00    +0.004 A 
ATOM      4  C   UNL     1       7.268   6.610   3.528  0.00  0.00    +0.004 A 
ATOM      5  C   UNL     1       7.877   8.364   4.270  0.00  0.00    +0.005 A 
ATOM      6  C   UNL     1       7.665   6.654   4.445  0.00  0.00    +0.005 A 
ENDROOT
BRANCH   2   7
ATOM      7  C   UNL     1       8.367   7.575   5.733  0.00  0.00    +0.124 C 
ATOM      8  C   UNL     1       7.784   7.772   6.521  0.00  0.00    +0.024 C 
BRANCH   7  10
ATOM      9  O   UNL     1       9.688   6.505   6.061  0.00  0.00    -0.250 OA
ATOM     10  C   UNL     1       9.347   7.423   5.861  0.00  0.00    +0.312 C 
BRANCH  10  11
ATOM     11  O   UNL     1       9.985   8.189   5.789  0.00  0.00    -0.480 OA
ATOM     12  H   UNL     1      10.547   8.102   5.542  0.00  0.00    +0.295 HD
ENDBRANCH  10  11
ENDBRANCH   7  10
ENDBRANCH   2   7
BRANCH   1  13
ATOM     13  C   UNL     1       6.778   7.398   2.066  0.00  0.00    +0.038 C 
BRANCH  13  14
ATOM     14  C   UNL     1       7.374   7.332   1.265  0.00  0.00    -0.013 C 
ATOM     15  C   UNL     1       7.626   8.156   0.759  0.00  0.00    +0.007 C 
ATOM     16  C   UNL     1       7.718   6.440   0.971  0.00  0.00    +0.007 C 
ENDBRANCH  13  14
ENDBRANCH   1  13
TORSDOF 5
ENDMDL
