MODEL 1
REMARK VINA RESULT:      -4.5      0.000      0.000
REMARK  Name = 2244
REMARK  5 active torsions:
REMARK  status: ('A' for Active; 'I' for Inactive)
REMARK    1  A    between atoms: O_1  and  C_5
REMARK    2  A    between atoms: O_1  and  C_12
REMARK    3  A    between atoms: O_2  and  C_11
REMARK    4  A    between atoms: C_6  and  C_11
REMARK    5  A    between atoms: C_12  and  C_13
REMARK                            x       y       z     vdW  Elec       q    Type
REMARK                         _______ _______ _______ _____ _____    ______ ____
ROOT
ATOM      1  C   UNL     1       9.326   5.388  -9.937  0.00  0.00    +0.146 A 
ATOM      2  C   UNL     1       8.583   6.043 -10.075  0.00  0.00    +0.101 A 
ATOM      3  C   UNL     1       9.273   4.721  -9.193  0.00  0.00    +0.047 A 
ATOM      4  C   UNL     1       7.787   6.031  -9.470  0.00  0.00    +0.018 A 
ATOM      5  C   UNL     1       8.477   4.710  -8.588  0.00  0.00    +0.004 A 
ATOM      6  C   UNL     1       7.734   5.364  -8.726  0.00  0.00    +0.001 A 
ENDROOT
BRANCH   2   8
ATOM      7  O   UNL     1       8.283   6.477 -11.725  0.00  0.00    -0.245 OA
ATOM      8  C   UNL     1       8.636   6.709 -10.819  0.00  0.00    +0.340 C 
BRANCH   8   9
ATOM      9  O   UNL     1       9.043   7.608 -10.656  0.00  0.00    -0.477 OA
ATOM     10  H   UNL     1       9.509   7.669 -10.252  0.00  0.00    +0.295 HD
ENDBRANCH   8   9
ENDBRANCH   2   8
BRANCH   1  11
ATOM     11  O   UNL     1      10.122   5.399 -10.542  0.00  0.00    -0.425 OA
BRANCH  11  13
ATOM     12  O   UNL     1      11.624   5.046  -9.754  0.00  0.00    -0.251 OA
ATOM     13  C   UNL     1      10.887   4.777 -10.374  0.00  0.00    +0.309 C 
ATOM     14  C   UNL     1      10.914   3.886 -10.827  0.00  0.00    +0.136 C 
ENDBRANCH  11  13
ENDBRANCH   1  11
TORSDOF 4
ENDMDL
MODEL 2
REMARK VINA RESULT:      -4.2      0.899      2.745
REMARK  Name = 2244
REMARK  5 active torsions:
REMARK  status: ('A' for Active; 'I' for Inactive)
REMARK    1  A    between atoms: O_1  and  C_5
REMARK    2  A    between atoms: O_1  and  C_12
REMARK    3  A    between atoms: O_2  and  C_11
REMARK    4  A    between atoms: C_6  and  C_11
REMARK    5  A    between atoms: C_12  and  C_13
REMARK                            x       y       z     vdW  Elec       q    Type
REMARK                         _______ _______ _______ _____ _____    ______ ____
ROOT
ATOM      1  C   UNL     1       9.543   4.997  -9.791  0.00  0.00    +0.146 A 
ATOM      2  C   UNL     1      10.323   4.478  -9.440  0.00  0.00    +0.101 A 
ATOM      3  C   UNL     1       8.689   5.027  -9.272  0.00  0.00    +0.047 A 
ATOM      4  C   UNL     1      10.249   3.990  -8.571  0.00  0.00    +0.018 A 
ATOM      5  C   UNL     1       8.614   4.538  -8.403  0.00  0.00    +0.004 A 
ATOM      6  C   UNL     1       9.394   4.020  -8.052  0.00  0.00    +0.001 A 
ENDROOT
BRANCH   2   8
ATOM      7  O   UNL     1      11.304   3.763 -10.676  0.00  0.00    -0.245 OA
ATOM      8  C   UNL     1      11.177   4.449  -9.959  0.00  0.00    +0.340 C 
BRANCH   8   9
ATOM      9  O   UNL     1      11.905   5.105  -9.761  0.00  0.00    -0.477 OA
ATOM     10  H   UNL     1      11.788   5.713  -9.782  0.00  0.00    +0.295 HD
ENDBRANCH   8   9
ENDBRANCH   2   8
BRANCH   1  11
ATOM     11  O   UNL     1       9.617   5.485 -10.660  0.00  0.00    -0.425 OA
BRANCH  11  13
ATOM     12  O   UNL     1       9.115   7.141 -10.591  0.00  0.00    -0.251 OA
ATOM     13  C   UNL     1       8.957   6.200 -10.890  0.00  0.00    +0.309 C 
ATOM     14  C   UNL     1       8.139   5.974 -11.419  0.00  0.00    +0.136 C 
ENDBRANCH  11  13
ENDBRANCH   1  11
TORSDOF 4
ENDMDL
MODEL 3
REMARK VINA RESULT:      -4.0      1.431      2.779
REMARK  Name = 2244
REMARK  5 active torsions:
REMARK  status: ('A' for Active; 'I' for Inactive)
REMARK    1  A    between atoms: O_1  and  C_5
REMARK    2  A    between atoms: O_1  and  C_12
REMARK    3  A    between atoms: O_2  and  C_11
REMARK    4  A    between atoms: C_6  and  C_11
REMARK    5  A    between atoms: C_12  and  C_13
REMARK                            x       y       z     vdW  Elec       q    Type
REMARK                         _______ _______ _______ _____ _____    ______ ____
ROOT
ATOM      1  C   UNL     1       8.346   5.730  -9.484  0.00  0.00    +0.146 A 
ATOM      2  C   UNL     1       8.879   5.981 -10.292  0.00  0.00    +0.101 A 
ATOM      3  C   UNL     1       8.612   4.937  -8.935  0.00  0.00    +0.047 A 
ATOM      4  C   UNL     1       9.679   5.440 -10.551  0.00  0.00    +0.018 A 
ATOM      5  C   UNL     1       9.412   4.396  -9.194  0.00  0.00    +0.004 A 
ATOM      6  C   UNL     1       9.945   4.647 -10.002  0.00  0.00    +0.001 A 
ENDROOT
BRANCH   2   8
ATOM      7  O   UNL     1       7.938   6.671 -11.572  0.00  0.00    -0.245 OA
ATOM      8  C   UNL     1       8.613   6.773 -10.840  0.00  0.00    +0.340 C 
BRANCH   8   9
ATOM      9  O   UNL     1       9.021   7.668 -10.658  0.00  0.00    -0.477 OA
ATOM     10  H   UNL     1       8.766   8.180 -10.899  0.00  0.00    +0.295 HD
ENDBRANCH   8   9
ENDBRANCH   2   8
BRANCH   1  11
ATOM     11  O   UNL     1       7.546   6.271  -9.225  0.00  0.00    -0.425 OA
BRANCH  11  13
ATOM     12  O   UNL     1       7.406   6.393  -7.503  0.00  0.00    -0.251 OA
ATOM     13  C   UNL     1       7.054   6.064  -8.379  0.00  0.00    +0.309 C 
ATOM     14  C   UNL     1       6.211   5.528  -8.409  0.00  0.00    +0.136 C 
ENDBRANCH  11  13
ENDBRANCH   1  11
TORSDOF 4
ENDMDL
MODEL 4
REMARK VINA RESULT:      -3.9      3.621      4.679
REMARK  Name = 2244
REMARK  5 active torsions:
REMARK  status: ('A' for Active; 'I' for Inactive)
REMARK    1  A    between atoms: O_1  and  C_5
REMARK    2  A    between atoms: O_1  and  C_12
REMARK    3  A    between atoms: O_2  and  C_11
REMARK    4  A    between atoms: C_6  and  C_11
REMARK    5  A    between atoms: C_12  and  C_13
REMARK                            x       y       z     vdW  Elec       q    Type
REMARK                         _______ _______ _______ _____ _____    ______ ____
ROOT
ATOM      1  C   UNL     1       6.751   6.398  -6.955  0.00  0.00    +0.146 A 
ATOM      2  C   UNL     1       6.684   6.710  -6.007  0.00  0.00    +0.101 A 
ATOM      3  C   UNL     1       5.983   6.531  -7.581  0.00  0.00    +0.047 A 
ATOM      4  C   UNL     1       5.848   7.155  -5.686  0.00  0.00    +0.018 A 
ATOM      5  C   UNL     1       5.147   6.976  -7.260  0.00  0.00    +0.004 A 
ATOM      6  C   UNL     1       5.079   7.288  -6.312  0.00  0.00    +0.001 A 
ENDROOT
BRANCH   2   8
ATOM      7  O   UNL     1       7.537   5.724  -4.868  0.00  0.00    -0.245 OA
ATOM      8  C   UNL     1       7.452   6.578  -5.381  0.00  0.00    +0.340 C 
BRANCH   8   9
ATOM      9  O   UNL     1       8.135   7.299  -5.268  0.00  0.00    -0.477 OA
ATOM     10  H   UNL     1       8.574   7.381  -5.698  0.00  0.00    +0.295 HD
ENDBRANCH   8   9
ENDBRANCH   2   8
BRANCH   1  11
ATOM     11  O   UNL     1       7.587   5.954  -7.276  0.00  0.00    -0.425 OA
BRANCH  11  13
ATOM     12  O   UNL     1       7.865   6.220  -8.965  0.00  0.00    -0.251 OA
ATOM     13  C   UNL     1       7.639   5.603  -8.211  0.00  0.00    +0.309 C 
ATOM     14  C   UNL     1       7.466   4.635  -8.393  0.00  0.00    +0.136 C 
ENDBRANCH  11  13
ENDBRANCH   1  11
TORSDOF 4
ENDMDL
MODEL 5
REMARK VINA RESULT:      -3.9      1.165      3.286
REMARK  Name = 2244
REMARK  5 active torsions:
REMARK  status: ('A' for Active; 'I' for Inactive)
REMARK    1  A    between atoms: O_1  and  C_5
REMARK    2  A    between atoms: O_1  and  C_12
REMARK    3  A    between atoms: O_2  and  C_11
REMARK    4  A    between atoms: C_6  and  C_11
REMARK    5  A    between atoms: C_12  and  C_13
REMARK                            x       y       z     vdW  Elec       q    Type
REMARK                         _______ _______ _______ _____ _____    ______ ____
ROOT
ATOM      1  C   UNL     1       9.643   4.804 -10.615  0.00  0.00    +0.146 A 
ATOM      2  C   UNL     1      10.454   4.274 -10.370  0.00  0.00    +0.101 A 
ATOM      3  C   UNL     1       8.999   4.449 -11.293  0.00  0.00    +0.047 A 
ATOM      4  C   UNL     1      10.621   3.387 -10.802  0.00  0.00    +0.018 A 
ATOM      5  C   UNL     1       9.166   3.563 -11.725  0.00  0.00    +0.004 A 
ATOM      6  C   UNL     1       9.978   3.032 -11.479  0.00  0.00    +0.001 A 
ENDROOT
BRANCH   2   8
ATOM      7  O   UNL     1      11.893   5.159  -9.988  0.00  0.00    -0.245 OA
ATOM      8  C   UNL     1      11.098   4.629  -9.692  0.00  0.00    +0.340 C 
BRANCH   8   9
ATOM      9  O   UNL     1      10.947   4.455  -8.719  0.00  0.00    -0.477 OA
ATOM     10  H   UNL     1      11.226   3.974  -8.444  0.00  0.00    +0.295 HD
ENDBRANCH   8   9
ENDBRANCH   2   8
BRANCH   1  11
ATOM     11  O   UNL     1       9.476   5.690 -10.183  0.00  0.00    -0.425 OA
BRANCH  11  13
ATOM     12  O   UNL     1       9.215   6.926 -11.369  0.00  0.00    -0.251 OA
ATOM     13  C   UNL     1       8.872   6.355 -10.623  0.00  0.00    +0.309 C 
ATOM     14  C   UNL     1       7.924   6.449 -10.317  0.00  0.00    +0.136 C 
ENDBRANCH  11  13
ENDBRANCH   1  11
TORSDOF 4
ENDMDL
MODEL 6
REMARK VINA RESULT:      -3.8      1.593      2.401
REMARK  Name = 2244
REMARK  5 active torsions:
REMARK  status: ('A' for Active; 'I' for Inactive)
REMARK    1  A    between atoms: O_1  and  C_5
REMARK    2  A    between atoms: O_1  and  C_12
REMARK    3  A    between atoms: O_2  and  C_11
REMARK    4  A    between atoms: C_6  and  C_11
REMARK    5  A    between atoms: C_12  and  C_13
REMARK                            x       y       z     vdW  Elec       q    Type
REMARK                         _______ _______ _______ _____ _____    ______ ____
ROOT
ATOM      1  C   UNL     1       9.395   4.895  -9.397  0.00  0.00    +0.146 A 
ATOM      2  C   UNL     1       8.640   4.895  -8.742  0.00  0.00    +0.101 A 
ATOM      3  C   UNL     1       9.341   5.456 -10.223  0.00  0.00    +0.047 A 
ATOM      4  C   UNL     1       7.830   5.456  -8.913  0.00  0.00    +0.018 A 
ATOM      5  C   UNL     1       8.531   6.018 -10.394  0.00  0.00    +0.004 A 
ATOM      6  C   UNL     1       7.776   6.017  -9.739  0.00  0.00    +0.001 A 
ENDROOT
BRANCH   2   8
ATOM      7  O   UNL     1       8.368   3.388  -7.932  0.00  0.00    -0.245 OA
ATOM      8  C   UNL     1       8.694   4.333  -7.917  0.00  0.00    +0.340 C 
BRANCH   8   9
ATOM      9  O   UNL     1       9.074   4.717  -7.075  0.00  0.00    -0.477 OA
ATOM     10  H   UNL     1       8.740   4.710  -6.553  0.00  0.00    +0.295 HD
ENDBRANCH   8   9
ENDBRANCH   2   8
BRANCH   1  11
ATOM     11  O   UNL     1      10.205   4.334  -9.227  0.00  0.00    -0.425 OA
BRANCH  11  13
ATOM     12  O   UNL     1      11.649   5.094  -9.809  0.00  0.00    -0.251 OA
ATOM     13  C   UNL     1      10.974   4.358  -9.866  0.00  0.00    +0.309 C 
ATOM     14  C   UNL     1      11.068   3.646 -10.561  0.00  0.00    +0.136 C 
ENDBRANCH  11  13
ENDBRANCH   1  11
TORSDOF 4
ENDMDL
MODEL 7
REMARK VINA RESULT:      -3.5      1.677      3.062
REMARK  Name = 2244
REMARK  5 active torsions:
REMARK  status: ('A' for Active; 'I' for Inactive)
REMARK    1  A    between atoms: O_1  and  C_5
REMARK    2  A    between atoms: O_1  and  C_12
REMARK    3  A    between atoms: O_2  and  C_11
REMARK    4  A    between atoms: C_6  and  C_11
REMARK    5  A    between atoms: C_12  and  C_13
REMARK                            x       y       z     vdW  Elec       q    Type
REMARK                         _______ _______ _______ _____ _____    ______ ____
ROOT
ATOM      1  C   UNL     1       9.557   5.030  -9.801  0.00  0.00    +0.146 A 
ATOM      2  C   UNL     1      10.339   5.092 -10.422  0.00  0.00    +0.101 A 
ATOM      3  C   UNL     1       8.722   5.544  -9.996  0.00  0.00    +0.047 A 
ATOM      4  C   UNL     1      10.285   5.670 -11.237  0.00  0.00    +0.018 A 
ATOM      5  C   UNL     1       8.668   6.121 -10.811  0.00  0.00    +0.004 A 
ATOM      6  C   UNL     1       9.450   6.184 -11.431  0.00  0.00    +0.001 A 
ENDROOT
BRANCH   2   8
ATOM      7  O   UNL     1      11.333   3.696 -10.670  0.00  0.00    -0.245 OA
ATOM      8  C   UNL     1      11.174   4.578 -10.227  0.00  0.00    +0.340 C 
BRANCH   8   9
ATOM      9  O   UNL     1      11.851   4.947  -9.590  0.00  0.00    -0.477 OA
ATOM     10  H   UNL     1      12.451   4.807  -9.660  0.00  0.00    +0.295 HD
ENDBRANCH   8   9
ENDBRANCH   2   8
BRANCH   1  11
ATOM     11  O   UNL     1       9.611   4.452  -8.986  0.00  0.00    -0.425 OA
BRANCH  11  13
ATOM     12  O   UNL     1       8.232   3.405  -8.940  0.00  0.00    -0.251 OA
ATOM     13  C   UNL     1       8.773   4.143  -8.537  0.00  0.00    +0.309 C 
ATOM     14  C   UNL     1       8.476   4.572  -7.683  0.00  0.00    +0.136 C 
ENDBRANCH  11  13
ENDBRANCH   1  11
TORSDOF 4
ENDMDL
MODEL 8
REMARK VINA RESULT:      -3.5      3.834      5.065
REMARK  Name = 2244
REMARK  5 active torsions:
REMARK  status: ('A' for Active; 'I' for Inactive)
REMARK    1  A    between atoms: O_1  and  C_5
REMARK    2  A    between atoms: O_1  and  C_12
REMARK    3  A    between atoms: O_2  and  C_11
REMARK    4  A    between atoms: C_6  and  C_11
REMARK    5  A    between atoms: C_12  and  C_13
REMARK                            x       y       z     vdW  Elec       q    Type
REMARK                         _______ _______ _______ _____ _____    ______ ____
ROOT
ATOM      1  C   UNL     1       7.099   6.147  -6.087  0.00  0.00    +0.146 A 
ATOM      2  C   UNL     1       7.149   5.683  -6.971  0.00  0.00    +0.101 A 
ATOM      3  C   UNL     1       6.377   6.817  -5.914  0.00  0.00    +0.047 A 
ATOM      4  C   UNL     1       6.477   5.888  -7.682  0.00  0.00    +0.018 A 
ATOM      5  C   UNL     1       5.705   7.022  -6.625  0.00  0.00    +0.004 A 
ATOM      6  C   UNL     1       5.755   6.558  -7.509  0.00  0.00    +0.001 A 
ENDROOT
BRANCH   2   8
ATOM      7  O   UNL     1       7.764   4.070  -6.830  0.00  0.00    -0.245 OA
ATOM      8  C   UNL     1       7.871   5.013  -7.144  0.00  0.00    +0.340 C 
BRANCH   8   9
ATOM      9  O   UNL     1       8.701   5.287  -7.630  0.00  0.00    -0.477 OA
ATOM     10  H   UNL     1       9.011   5.794  -7.454  0.00  0.00    +0.295 HD
ENDBRANCH   8   9
ENDBRANCH   2   8
BRANCH   1  11
ATOM     11  O   UNL     1       7.772   5.942  -5.376  0.00  0.00    -0.425 OA
BRANCH  11  13
ATOM     12  O   UNL     1       8.409   7.415  -4.725  0.00  0.00    -0.251 OA
ATOM     13  C   UNL     1       7.891   6.568  -4.605  0.00  0.00    +0.309 C 
ATOM     14  C   UNL     1       7.493   6.347  -3.715  0.00  0.00    +0.136 C 
ENDBRANCH  11  13
ENDBRANCH   1  11
TORSDOF 4
ENDMDL
MODEL 9
REMARK VINA RESULT:      -3.4      1.899      3.306
REMARK  Name = 2244
REMARK  5 active torsions:
REMARK  status: ('A' for Active; 'I' for Inactive)
REMARK    1  A    between atoms: O_1  and  C_5
REMARK    2  A    between atoms: O_1  and  C_12
REMARK    3  A    between atoms: O_2  and  C_11
REMARK    4  A    between atoms: C_6  and  C_11
REMARK    5  A    between atoms: C_12  and  C_13
REMARK                            x       y       z     vdW  Elec       q    Type
REMARK                         _______ _______ _______ _____ _____    ______ ____
ROOT
ATOM      1  C   UNL     1       9.951   3.700  -9.394  0.00  0.00    +0.146 A 
ATOM      2  C   UNL     1      10.617   3.917 -10.108  0.00  0.00    +0.101 A 
ATOM      3  C   UNL     1       9.530   2.793  -9.362  0.00  0.00    +0.047 A 
ATOM      4  C   UNL     1      10.862   3.228 -10.789  0.00  0.00    +0.018 A 
ATOM      5  C   UNL     1       9.775   2.104 -10.044  0.00  0.00    +0.004 A 
ATOM      6  C   UNL     1      10.441   2.322 -10.758  0.00  0.00    +0.001 A 
ENDROOT
BRANCH   2   8
ATOM      7  O   UNL     1      10.587   5.567 -10.634  0.00  0.00    -0.245 OA
ATOM      8  C   UNL     1      11.037   4.824 -10.139  0.00  0.00    +0.340 C 
BRANCH   8   9
ATOM      9  O   UNL     1      11.908   4.988  -9.676  0.00  0.00    -0.477 OA
ATOM     10  H   UNL     1      12.302   4.518  -9.582  0.00  0.00    +0.295 HD
ENDBRANCH   8   9
ENDBRANCH   2   8
BRANCH   1  11
ATOM     11  O   UNL     1       9.706   4.389  -8.712  0.00  0.00    -0.425 OA
BRANCH  11  13
ATOM     12  O   UNL     1       9.823   3.668  -7.142  0.00  0.00    -0.251 OA
ATOM     13  C   UNL     1       9.277   4.111  -7.852  0.00  0.00    +0.309 C 
ATOM     14  C   UNL     1       8.302   4.277  -7.703  0.00  0.00    +0.136 C 
ENDBRANCH  11  13
ENDBRANCH   1  11
TORSDOF 4
ENDMDL
