MODEL 1
REMARK VINA RESULT:      -4.5      0.000      0.000
REMARK  Name = 2244
REMARK  5 active torsions:
REMARK  status: ('A' for Active; 'I' for Inactive)
REMARK    1  A    between atoms: O_1  and  C_5
REMARK    2  A    between atoms: O_1  and  C_12
REMARK    3  A    between atoms: O_2  and  C_11
REMARK    4  A    between atoms: C_6  and  C_11
REMARK    5  A    between atoms: C_12  and  C_13
REMARK                            x       y       z     vdW  Elec       q    Type
REMARK                         _______ _______ _______ _____ _____    ______ ____
ROOT
ATOM      1  C   UNL     1       9.325   5.388  -9.936  0.00  0.00    +0.146 A 
ATOM      2  C   UNL     1       8.582   6.043 -10.075  0.00  0.00    +0.101 A 
ATOM      3  C   UNL     1       9.271   4.722  -9.192  0.00  0.00    +0.047 A 
ATOM      4  C   UNL     1       7.786   6.032  -9.471  0.00  0.00    +0.018 A 
ATOM      5  C   UNL     1       8.475   4.710  -8.588  0.00  0.00    +0.004 A 
ATOM      6  C   UNL     1       7.732   5.365  -8.727  0.00  0.00    +0.001 A 
ENDROOT
BRANCH   2   8
ATOM      7  O   UNL     1       8.282   6.477 -11.725  0.00  0.00    -0.245 OA
ATOM      8  C   UNL     1       8.636   6.710 -10.819  0.00  0.00    +0.340 C 
BRANCH   8   9
ATOM      9  O   UNL     1       9.044   7.608 -10.657  0.00  0.00    -0.477 OA
ATOM     10  H   UNL     1       8.844   8.101 -10.975  0.00  0.00    +0.295 HD
ENDBRANCH   8   9
ENDBRANCH   2   8
BRANCH   1  11
ATOM     11  O   UNL     1      10.122   5.400 -10.540  0.00  0.00    -0.425 OA
BRANCH  11  13
ATOM     12  O   UNL     1      11.623   5.045  -9.752  0.00  0.00    -0.251 OA
ATOM     13  C   UNL     1      10.886   4.777 -10.372  0.00  0.00    +0.309 C 
ATOM     14  C   UNL     1      10.912   3.885 -10.825  0.00  0.00    +0.136 C 
ENDBRANCH  11  13
ENDBRANCH   1  11
TORSDOF 4
ENDMDL
MODEL 2
REMARK VINA RESULT:      -4.2      0.918      2.754
REMARK  Name = 2244
REMARK  5 active torsions:
REMARK  status: ('A' for Active; 'I' for Inactive)
REMARK    1  A    between atoms: O_1  and  C_5
REMARK    2  A    between atoms: O_1  and  C_12
REMARK    3  A    between atoms: O_2  and  C_11
REMARK    4  A    between atoms: C_6  and  C_11
REMARK    5  A    between atoms: C_12  and  C_13
REMARK                            x       y       z     vdW  Elec       q    Type
REMARK                         _______ _______ _______ _____ _____    ______ ____
ROOT
ATOM      1  C   UNL     1       9.551   4.964  -9.772  0.00  0.00    +0.146 A 
ATOM      2  C   UNL     1      10.342   4.459  -9.426  0.00  0.00    +0.101 A 
ATOM      3  C   UNL     1       8.703   4.989  -9.241  0.00  0.00    +0.047 A 
ATOM      4  C   UNL     1      10.286   3.980  -8.550  0.00  0.00    +0.018 A 
ATOM      5  C   UNL     1       8.647   4.510  -8.365  0.00  0.00    +0.004 A 
ATOM      6  C   UNL     1       9.438   4.006  -8.020  0.00  0.00    +0.001 A 
ENDROOT
BRANCH   2   8
ATOM      7  O   UNL     1      11.317   3.736 -10.662  0.00  0.00    -0.245 OA
ATOM      8  C   UNL     1      11.189   4.434  -9.957  0.00  0.00    +0.340 C 
BRANCH   8   9
ATOM      9  O   UNL     1      11.908   5.106  -9.782  0.00  0.00    -0.477 OA
ATOM     10  H   UNL     1      11.998   5.574 -10.179  0.00  0.00    +0.295 HD
ENDBRANCH   8   9
ENDBRANCH   2   8
BRANCH   1  11
ATOM     11  O   UNL     1       9.607   5.443 -10.648  0.00  0.00    -0.425 OA
BRANCH  11  13
ATOM     12  O   UNL     1       9.139   7.109 -10.573  0.00  0.00    -0.251 OA
ATOM     13  C   UNL     1       8.954   6.170 -10.863  0.00  0.00    +0.309 C 
ATOM     14  C   UNL     1       8.117   5.957 -11.367  0.00  0.00    +0.136 C 
ENDBRANCH  11  13
ENDBRANCH   1  11
TORSDOF 4
ENDMDL
MODEL 3
REMARK VINA RESULT:      -4.0      1.430      2.770
REMARK  Name = 2244
REMARK  5 active torsions:
REMARK  status: ('A' for Active; 'I' for Inactive)
REMARK    1  A    between atoms: O_1  and  C_5
REMARK    2  A    between atoms: O_1  and  C_12
REMARK    3  A    between atoms: O_2  and  C_11
REMARK    4  A    between atoms: C_6  and  C_11
REMARK    5  A    between atoms: C_12  and  C_13
REMARK                            x       y       z     vdW  Elec       q    Type
REMARK                         _______ _______ _______ _____ _____    ______ ____
ROOT
ATOM      1  C   UNL     1       8.362   5.722  -9.493  0.00  0.00    +0.146 A 
ATOM      2  C   UNL     1       8.893   5.980 -10.301  0.00  0.00    +0.101 A 
ATOM      3  C   UNL     1       8.634   4.929  -8.948  0.00  0.00    +0.047 A 
ATOM      4  C   UNL     1       9.696   5.444 -10.563  0.00  0.00    +0.018 A 
ATOM      5  C   UNL     1       9.437   4.394  -9.211  0.00  0.00    +0.004 A 
ATOM      6  C   UNL     1       9.968   4.651 -10.018  0.00  0.00    +0.001 A 
ENDROOT
BRANCH   2   8
ATOM      7  O   UNL     1       7.945   6.670 -11.575  0.00  0.00    -0.245 OA
ATOM      8  C   UNL     1       8.621   6.773 -10.846  0.00  0.00    +0.340 C 
BRANCH   8   9
ATOM      9  O   UNL     1       9.025   7.669 -10.661  0.00  0.00    -0.477 OA
ATOM     10  H   UNL     1       8.732   8.184 -10.842  0.00  0.00    +0.295 HD
ENDBRANCH   8   9
ENDBRANCH   2   8
BRANCH   1  11
ATOM     11  O   UNL     1       7.560   6.258  -9.231  0.00  0.00    -0.425 OA
BRANCH  11  13
ATOM     12  O   UNL     1       7.424   6.382  -7.509  0.00  0.00    -0.251 OA
ATOM     13  C   UNL     1       7.073   6.047  -8.383  0.00  0.00    +0.309 C 
ATOM     14  C   UNL     1       6.236   5.500  -8.410  0.00  0.00    +0.136 C 
ENDBRANCH  11  13
ENDBRANCH   1  11
TORSDOF 4
ENDMDL
MODEL 4
REMARK VINA RESULT:      -3.9      3.628      4.686
REMARK  Name = 2244
REMARK  5 active torsions:
REMARK  status: ('A' for Active; 'I' for Inactive)
REMARK    1  A    between atoms: O_1  and  C_5
REMARK    2  A    between atoms: O_1  and  C_12
REMARK    3  A    between atoms: O_2  and  C_11
REMARK    4  A    between atoms: C_6  and  C_11
REMARK    5  A    between atoms: C_12  and  C_13
REMARK                            x       y       z     vdW  Elec       q    Type
REMARK                         _______ _______ _______ _____ _____    ______ ____
ROOT
ATOM      1  C   UNL     1       6.752   6.399  -6.945  0.00  0.00    +0.146 A 
ATOM      2  C   UNL     1       6.683   6.710  -5.998  0.00  0.00    +0.101 A 
ATOM      3  C   UNL     1       5.985   6.532  -7.573  0.00  0.00    +0.047 A 
ATOM      4  C   UNL     1       5.846   7.154  -5.677  0.00  0.00    +0.018 A 
ATOM      5  C   UNL     1       5.148   6.977  -7.252  0.00  0.00    +0.004 A 
ATOM      6  C   UNL     1       5.079   7.288  -6.304  0.00  0.00    +0.001 A 
ENDROOT
BRANCH   2   8
ATOM      7  O   UNL     1       7.530   5.725  -4.852  0.00  0.00    -0.245 OA
ATOM      8  C   UNL     1       7.450   6.576  -5.370  0.00  0.00    +0.340 C 
BRANCH   8   9
ATOM      9  O   UNL     1       8.138   7.294  -5.261  0.00  0.00    -0.477 OA
ATOM     10  H   UNL     1       8.398   7.392  -4.707  0.00  0.00    +0.295 HD
ENDBRANCH   8   9
ENDBRANCH   2   8
BRANCH   1  11
ATOM     11  O   UNL     1       7.588   5.954  -7.266  0.00  0.00    -0.425 OA
BRANCH  11  13
ATOM     12  O   UNL     1       7.861   6.214  -8.956  0.00  0.00    -0.251 OA
ATOM     13  C   UNL     1       7.640   5.599  -8.199  0.00  0.00    +0.309 C 
ATOM     14  C   UNL     1       7.469   4.630  -8.376  0.00  0.00    +0.136 C 
ENDBRANCH  11  13
ENDBRANCH   1  11
TORSDOF 4
ENDMDL
MODEL 5
REMARK VINA RESULT:      -3.8      1.597      2.404
REMARK  Name = 2244
REMARK  5 active torsions:
REMARK  status: ('A' for Active; 'I' for Inactive)
REMARK    1  A    between atoms: O_1  and  C_5
REMARK    2  A    between atoms: O_1  and  C_12
REMARK    3  A    between atoms: O_2  and  C_11
REMARK    4  A    between atoms: C_6  and  C_11
REMARK    5  A    between atoms: C_12  and  C_13
REMARK                            x       y       z     vdW  Elec       q    Type
REMARK                         _______ _______ _______ _____ _____    ______ ____
ROOT
ATOM      1  C   UNL     1       9.401   4.882  -9.400  0.00  0.00    +0.146 A 
ATOM      2  C   UNL     1       8.647   4.885  -8.743  0.00  0.00    +0.101 A 
ATOM      3  C   UNL     1       9.346   5.441 -10.227  0.00  0.00    +0.047 A 
ATOM      4  C   UNL     1       7.837   5.447  -8.914  0.00  0.00    +0.018 A 
ATOM      5  C   UNL     1       8.537   6.003 -10.398  0.00  0.00    +0.004 A 
ATOM      6  C   UNL     1       7.783   6.006  -9.742  0.00  0.00    +0.001 A 
ENDROOT
BRANCH   2   8
ATOM      7  O   UNL     1       8.374   3.382  -7.928  0.00  0.00    -0.245 OA
ATOM      8  C   UNL     1       8.702   4.327  -7.916  0.00  0.00    +0.340 C 
BRANCH   8   9
ATOM      9  O   UNL     1       9.084   4.713  -7.076  0.00  0.00    -0.477 OA
ATOM     10  H   UNL     1       8.726   4.777  -6.574  0.00  0.00    +0.295 HD
ENDBRANCH   8   9
ENDBRANCH   2   8
BRANCH   1  11
ATOM     11  O   UNL     1      10.210   4.320  -9.229  0.00  0.00    -0.425 OA
BRANCH  11  13
ATOM     12  O   UNL     1      11.651   5.091  -9.802  0.00  0.00    -0.251 OA
ATOM     13  C   UNL     1      10.983   4.350  -9.863  0.00  0.00    +0.309 C 
ATOM     14  C   UNL     1      11.086   3.638 -10.558  0.00  0.00    +0.136 C 
ENDBRANCH  11  13
ENDBRANCH   1  11
TORSDOF 4
ENDMDL
MODEL 6
REMARK VINA RESULT:      -3.8      6.348      7.497
REMARK  Name = 2244
REMARK  5 active torsions:
REMARK  status: ('A' for Active; 'I' for Inactive)
REMARK    1  A    between atoms: O_1  and  C_5
REMARK    2  A    between atoms: O_1  and  C_12
REMARK    3  A    between atoms: O_2  and  C_11
REMARK    4  A    between atoms: C_6  and  C_11
REMARK    5  A    between atoms: C_12  and  C_13
REMARK                            x       y       z     vdW  Elec       q    Type
REMARK                         _______ _______ _______ _____ _____    ______ ____
ROOT
ATOM      1  C   UNL     1       6.936   6.617  -3.322  0.00  0.00    +0.146 A 
ATOM      2  C   UNL     1       7.347   6.395  -4.206  0.00  0.00    +0.101 A 
ATOM      3  C   UNL     1       6.017   6.291  -3.101  0.00  0.00    +0.047 A 
ATOM      4  C   UNL     1       6.838   5.846  -4.870  0.00  0.00    +0.018 A 
ATOM      5  C   UNL     1       5.509   5.742  -3.764  0.00  0.00    +0.004 A 
ATOM      6  C   UNL     1       5.919   5.520  -4.649  0.00  0.00    +0.001 A 
ENDROOT
BRANCH   2   8
ATOM      7  O   UNL     1       9.067   6.213  -4.109  0.00  0.00    -0.245 OA
ATOM      8  C   UNL     1       8.266   6.721  -4.427  0.00  0.00    +0.340 C 
BRANCH   8   9
ATOM      9  O   UNL     1       8.385   7.555  -4.965  0.00  0.00    -0.477 OA
ATOM     10  H   UNL     1       8.604   7.521  -5.545  0.00  0.00    +0.295 HD
ENDBRANCH   8   9
ENDBRANCH   2   8
BRANCH   1  11
ATOM     11  O   UNL     1       7.445   7.166  -2.658  0.00  0.00    -0.425 OA
BRANCH  11  13
ATOM     12  O   UNL     1       7.396   6.340  -1.136  0.00  0.00    -0.251 OA
ATOM     13  C   UNL     1       7.189   7.146  -1.692  0.00  0.00    +0.309 C 
ATOM     14  C   UNL     1       6.726   7.931  -1.281  0.00  0.00    +0.136 C 
ENDBRANCH  11  13
ENDBRANCH   1  11
TORSDOF 4
ENDMDL
MODEL 7
REMARK VINA RESULT:      -3.8      1.314      2.591
REMARK  Name = 2244
REMARK  5 active torsions:
REMARK  status: ('A' for Active; 'I' for Inactive)
REMARK    1  A    between atoms: O_1  and  C_5
REMARK    2  A    between atoms: O_1  and  C_12
REMARK    3  A    between atoms: O_2  and  C_11
REMARK    4  A    between atoms: C_6  and  C_11
REMARK    5  A    between atoms: C_12  and  C_13
REMARK                            x       y       z     vdW  Elec       q    Type
REMARK                         _______ _______ _______ _____ _____    ______ ____
ROOT
ATOM      1  C   UNL     1       9.066   5.526  -9.826  0.00  0.00    +0.146 A 
ATOM      2  C   UNL     1       9.293   6.030 -10.659  0.00  0.00    +0.101 A 
ATOM      3  C   UNL     1       9.610   4.731  -9.558  0.00  0.00    +0.047 A 
ATOM      4  C   UNL     1      10.066   5.739 -11.224  0.00  0.00    +0.018 A 
ATOM      5  C   UNL     1      10.382   4.440 -10.122  0.00  0.00    +0.004 A 
ATOM      6  C   UNL     1      10.610   4.944 -10.956  0.00  0.00    +0.001 A 
ENDROOT
BRANCH   2   8
ATOM      7  O   UNL     1       7.923   6.703 -11.477  0.00  0.00    -0.245 OA
ATOM      8  C   UNL     1       8.749   6.825 -10.927  0.00  0.00    +0.340 C 
BRANCH   8   9
ATOM      9  O   UNL     1       9.031   7.742 -10.645  0.00  0.00    -0.477 OA
ATOM     10  H   UNL     1       9.447   8.056 -10.981  0.00  0.00    +0.295 HD
ENDBRANCH   8   9
ENDBRANCH   2   8
BRANCH   1  11
ATOM     11  O   UNL     1       8.293   5.817  -9.261  0.00  0.00    -0.425 OA
BRANCH  11  13
ATOM     12  O   UNL     1       7.227   4.464  -9.080  0.00  0.00    -0.251 OA
ATOM     13  C   UNL     1       7.825   5.156  -8.675  0.00  0.00    +0.309 C 
ATOM     14  C   UNL     1       7.955   5.186  -7.684  0.00  0.00    +0.136 C 
ENDBRANCH  11  13
ENDBRANCH   1  11
TORSDOF 4
ENDMDL
MODEL 8
REMARK VINA RESULT:      -3.8      4.620      5.678
REMARK  Name = 2244
REMARK  5 active torsions:
REMARK  status: ('A' for Active; 'I' for Inactive)
REMARK    1  A    between atoms: O_1  and  C_5
REMARK    2  A    between atoms: O_1  and  C_12
REMARK    3  A    between atoms: O_2  and  C_11
REMARK    4  A    between atoms: C_6  and  C_11
REMARK    5  A    between atoms: C_12  and  C_13
REMARK                            x       y       z     vdW  Elec       q    Type
REMARK                         _______ _______ _______ _____ _____    ______ ____
ROOT
ATOM      1  C   UNL     1       7.185   6.192  -5.247  0.00  0.00    +0.146 A 
ATOM      2  C   UNL     1       7.573   6.516  -4.384  0.00  0.00    +0.101 A 
ATOM      3  C   UNL     1       6.250   5.839  -5.274  0.00  0.00    +0.047 A 
ATOM      4  C   UNL     1       7.025   6.487  -3.548  0.00  0.00    +0.018 A 
ATOM      5  C   UNL     1       5.703   5.810  -4.437  0.00  0.00    +0.004 A 
ATOM      6  C   UNL     1       6.090   6.134  -3.574  0.00  0.00    +0.001 A 
ENDROOT
BRANCH   2   8
ATOM      7  O   UNL     1       9.243   6.309  -3.974  0.00  0.00    -0.245 OA
ATOM      8  C   UNL     1       8.508   6.869  -4.357  0.00  0.00    +0.340 C 
BRANCH   8   9
ATOM      9  O   UNL     1       8.708   7.781  -4.714  0.00  0.00    -0.477 OA
ATOM     10  H   UNL     1       8.245   8.170  -4.848  0.00  0.00    +0.295 HD
ENDBRANCH   8   9
ENDBRANCH   2   8
BRANCH   1  11
ATOM     11  O   UNL     1       7.733   6.221  -6.083  0.00  0.00    -0.425 OA
BRANCH  11  13
ATOM     12  O   UNL     1       7.857   4.604  -6.693  0.00  0.00    -0.251 OA
ATOM     13  C   UNL     1       7.570   5.554  -6.811  0.00  0.00    +0.309 C 
ATOM     14  C   UNL     1       7.119   5.839  -7.657  0.00  0.00    +0.136 C 
ENDBRANCH  11  13
ENDBRANCH   1  11
TORSDOF 4
ENDMDL
MODEL 9
REMARK VINA RESULT:      -3.7      1.834      2.858
REMARK  Name = 2244
REMARK  5 active torsions:
REMARK  status: ('A' for Active; 'I' for Inactive)
REMARK    1  A    between atoms: O_1  and  C_5
REMARK    2  A    between atoms: O_1  and  C_12
REMARK    3  A    between atoms: O_2  and  C_11
REMARK    4  A    between atoms: C_6  and  C_11
REMARK    5  A    between atoms: C_12  and  C_13
REMARK                            x       y       z     vdW  Elec       q    Type
REMARK                         _______ _______ _______ _____ _____    ______ ____
ROOT
ATOM      1  C   UNL     1       9.651   4.608  -9.336  0.00  0.00    +0.146 A 
ATOM      2  C   UNL     1      10.230   4.912 -10.093  0.00  0.00    +0.101 A 
ATOM      3  C   UNL     1       8.717   4.955  -9.251  0.00  0.00    +0.047 A 
ATOM      4  C   UNL     1       9.875   5.563 -10.764  0.00  0.00    +0.018 A 
ATOM      5  C   UNL     1       8.362   5.606  -9.922  0.00  0.00    +0.004 A 
ATOM      6  C   UNL     1       8.941   5.910 -10.678  0.00  0.00    +0.001 A 
ENDROOT
BRANCH   2   8
ATOM      7  O   UNL     1      11.353   3.780 -10.769  0.00  0.00    -0.245 OA
ATOM      8  C   UNL     1      11.164   4.564 -10.179  0.00  0.00    +0.340 C 
BRANCH   8   9
ATOM      9  O   UNL     1      11.908   5.001  -9.674  0.00  0.00    -0.477 OA
ATOM     10  H   UNL     1      12.137   5.544  -9.868  0.00  0.00    +0.295 HD
ENDBRANCH   8   9
ENDBRANCH   2   8
BRANCH   1  11
ATOM     11  O   UNL     1      10.006   3.957  -8.666  0.00  0.00    -0.425 OA
BRANCH  11  13
ATOM     12  O   UNL     1       9.216   4.161  -7.138  0.00  0.00    -0.251 OA
ATOM     13  C   UNL     1       9.408   3.604  -7.946  0.00  0.00    +0.309 C 
ATOM     14  C   UNL     1       9.001   2.695  -8.034  0.00  0.00    +0.136 C 
ENDBRANCH  11  13
ENDBRANCH   1  11
TORSDOF 4
ENDMDL
