REMARK  Name = 36314
REMARK  23 active torsions:
REMARK  status: ('A' for Active; 'I' for Inactive)
REMARK    1  A    between atoms: O_2  and  C_17
REMARK    2  A    between atoms: O_2  and  C_36
REMARK    3  A    between atoms: O_3  and  C_20
REMARK    4  A    between atoms: O_3  and  C_37
REMARK    5  A    between atoms: O_4  and  C_21
REMARK    6  A    between atoms: O_5  and  C_22
REMARK    7  A    between atoms: O_6  and  C_30
REMARK    8  A    between atoms: O_6  and  C_39
REMARK    9  A    between atoms: O_8  and  C_31
REMARK   10  A    between atoms: O_8  and  C_40
REMARK   11  A    between atoms: O_13  and  C_42
REMARK   12  A    between atoms: N_15  and  C_46
REMARK   13  A    between atoms: C_18  and  C_29
REMARK   14  A    between atoms: C_24  and  C_33
REMARK   15  A    between atoms: C_24  and  C_34
REMARK   16  A    between atoms: C_32  and  C_35
REMARK   17  A    between atoms: C_36  and  C_38
REMARK   18  A    between atoms: C_37  and  C_41
REMARK   19  A    between atoms: C_39  and  C_43
REMARK   20  A    between atoms: C_40  and  C_42
REMARK   21  A    between atoms: C_42  and  C_46
REMARK   22  A    between atoms: C_46  and  C_50
REMARK   23  A    between atoms: C_53  and  C_56
REMARK                            x       y       z     vdW  Elec       q    Type
REMARK                         _______ _______ _______ _____ _____    ______ ____
ROOT
ATOM      1  O   UNL     1       5.148  -5.742   0.000  0.00  0.00    -0.368 OA
ATOM      2  O   UNL     1       2.869  -1.933   0.000  0.00  0.00    -0.292 OA
ATOM      3  C   UNL     1       5.176  -3.240   0.000  0.00  0.00    +0.097 C 
ATOM      4  C   UNL     1       5.327  -4.270   0.000  0.00  0.00    +0.170 C 
ATOM      5  C   UNL     1       4.252  -2.857   0.000  0.00  0.00    +0.066 C 
ATOM      6  C   UNL     1       4.506  -4.911   0.000  0.00  0.00    +0.167 C 
ATOM      7  C   UNL     1       6.099  -2.857   0.000  0.00  0.00    +0.217 C 
ATOM      8  C   UNL     1       6.482  -1.933   0.000  0.00  0.00    +0.116 C 
ATOM      9  C   UNL     1       3.416  -3.478   0.000  0.00  0.00    +0.131 C 
ATOM     10  C   UNL     1       3.544  -4.512   0.000  0.00  0.00    +0.068 C 
ATOM     11  C   UNL     1       6.099  -1.009   0.000  0.00  0.00    +0.023 C 
ATOM     12  C   UNL     1       5.977  -5.096   0.000  0.00  0.00    +0.211 C 
ATOM     13  C   UNL     1       3.869  -1.933   0.000  0.00  0.00    +0.187 C 
ATOM     14  C   UNL     1       7.155  -1.192   0.000  0.00  0.00    +0.088 C 
ATOM     15  C   UNL     1       5.176  -0.627   0.000  0.00  0.00    -0.011 C 
ATOM     16  C   UNL     1       3.328  -2.474   0.000  0.00  0.00    +0.022 C 
ATOM     17  C   UNL     1       4.252  -1.009   0.000  0.00  0.00    +0.270 C 
ATOM     18  C   UNL     1       6.880  -0.228   0.000  0.00  0.00    +0.205 C 
ATOM     19  C   UNL     1       5.917   0.046   0.000  0.00  0.00    -0.029 C 
ATOM     20  C   UNL     1       6.397   0.101   0.000  0.00  0.00    +0.018 C 
ATOM     21  C   UNL     1       7.210  -0.712   0.000  0.00  0.00    +0.018 C 
ATOM     22  C   UNL     1       5.690   1.020   0.000  0.00  0.00    +0.043 C 
ENDROOT
BRANCH   8  23
ATOM     23  O   UNL     1       7.482  -1.933   0.000  0.00  0.00    -0.384 OA
ATOM     24  H   UNL     1       7.792  -1.396   0.000  0.00  0.00    +0.210 HD
ENDBRANCH   8  23
BRANCH   9  25
ATOM     25  O   UNL     1       2.496  -3.085   0.000  0.00  0.00    -0.391 OA
ATOM     26  H   UNL     1       2.000  -3.457   0.000  0.00  0.00    +0.210 HD
ENDBRANCH   9  25
BRANCH   4  27
ATOM     27  O   UNL     1       6.318  -4.132   0.000  0.00  0.00    -0.453 OA
BRANCH  27  29
ATOM     28  O   UNL     1       7.604  -5.292   0.000  0.00  0.00    -0.251 OA
ATOM     29  C   UNL     1       6.626  -5.083   0.000  0.00  0.00    +0.305 C 
ATOM     30  C   UNL     1       5.956  -5.826   0.000  0.00  0.00    +0.136 C 
ENDBRANCH  27  29
ENDBRANCH   4  27
BRANCH   7  31
ATOM     31  O   UNL     1       7.006  -3.280   0.000  0.00  0.00    -0.454 OA
BRANCH  31  33
ATOM     32  O   UNL     1       8.425  -2.286   0.000  0.00  0.00    -0.245 OA
ATOM     33  C   UNL     1       8.002  -3.193   0.000  0.00  0.00    +0.340 C 
BRANCH  33  34
ATOM     34  C   UNL     1       8.575  -4.012   0.000  0.00  0.00    +0.059 A 
ATOM     35  C   UNL     1       9.572  -3.925   0.000  0.00  0.00    +0.015 A 
ATOM     36  C   UNL     1       8.153  -4.918   0.000  0.00  0.00    +0.015 A 
ATOM     37  C   UNL     1      10.145  -4.744   0.000  0.00  0.00    +0.001 A 
ATOM     38  C   UNL     1       8.727  -5.737   0.000  0.00  0.00    +0.001 A 
ATOM     39  C   UNL     1       9.723  -5.650   0.000  0.00  0.00    +0.000 A 
ENDBRANCH  33  34
ENDBRANCH  31  33
ENDBRANCH   7  31
BRANCH  17  40
ATOM     40  O   UNL     1       3.545  -0.302   0.000  0.00  0.00    -0.449 OA
BRANCH  40  42
ATOM     41  O   UNL     1       4.769   0.922   0.000  0.00  0.00    -0.251 OA
ATOM     42  C   UNL     1       3.803   0.664   0.000  0.00  0.00    +0.305 C 
ATOM     43  C   UNL     1       3.096   1.371   0.000  0.00  0.00    +0.136 C 
ENDBRANCH  40  42
ENDBRANCH  17  40
BRANCH  18  44
ATOM     44  O   UNL     1       7.588   0.479   0.000  0.00  0.00    -0.455 OA
BRANCH  44  46
ATOM     45  O   UNL     1       6.363   1.704   0.000  0.00  0.00    -0.248 OA
ATOM     46  C   UNL     1       7.329   1.445   0.000  0.00  0.00    +0.339 C 
BRANCH  46  47
ATOM     47  C   UNL     1       8.036   2.152   0.000  0.00  0.00    +0.247 C 
BRANCH  47  48
ATOM     48  O   UNL     1       9.002   1.893   0.000  0.00  0.00    -0.379 OA
ATOM     49  H   UNL     1       9.162   1.294   0.000  0.00  0.00    +0.211 HD
ENDBRANCH  47  48
BRANCH  47  50
ATOM     50  C   UNL     1       7.777   3.118   0.000  0.00  0.00    +0.143 C 
BRANCH  50  51
ATOM     51  C   UNL     1       8.484   3.825   0.000  0.00  0.00    -0.024 A 
ATOM     52  C   UNL     1       8.225   4.791   0.000  0.00  0.00    +0.005 A 
ATOM     53  C   UNL     1       9.450   3.566   0.000  0.00  0.00    +0.005 A 
ATOM     54  C   UNL     1       8.932   5.498   0.000  0.00  0.00    +0.000 A 
ATOM     55  C   UNL     1      10.157   4.273   0.000  0.00  0.00    +0.000 A 
ATOM     56  C   UNL     1       9.898   5.239   0.000  0.00  0.00    +0.000 A 
ENDBRANCH  50  51
BRANCH  50  58
ATOM     57  O   UNL     1       7.259   5.050   0.000  0.00  0.00    -0.270 OA
ATOM     58  N   UNL     1       6.811   3.377   0.000  0.00  0.00    -0.301 N 
ATOM     59  C   UNL     1       6.552   4.342   0.000  0.00  0.00    +0.245 C 
ATOM     60  H   UNL     1       6.373   2.938   0.000  0.00  0.00    +0.150 HD
BRANCH  59  61
ATOM     61  C   UNL     1       5.586   4.601   0.000  0.00  0.00    +0.037 A 
ATOM     62  C   UNL     1       5.327   5.567   0.000  0.00  0.00    +0.013 A 
ATOM     63  C   UNL     1       4.879   3.894   0.000  0.00  0.00    +0.013 A 
ATOM     64  C   UNL     1       4.362   5.826   0.000  0.00  0.00    +0.001 A 
ATOM     65  C   UNL     1       3.913   4.153   0.000  0.00  0.00    +0.001 A 
ATOM     66  C   UNL     1       3.655   5.119   0.000  0.00  0.00    +0.000 A 
ENDBRANCH  59  61
ENDBRANCH  50  58
ENDBRANCH  47  50
ENDBRANCH  46  47
ENDBRANCH  44  46
ENDBRANCH  18  44
TORSDOF 17
