MODEL 1
REMARK VINA RESULT:      -8.4      0.000      0.000
REMARK  Name = 16142
REMARK  7 active torsions:
REMARK  status: ('A' for Active; 'I' for Inactive)
REMARK    1  A    between atoms: O_1  and  C_10
REMARK    2  A    between atoms: O_7  and  C_30
REMARK    3  A    between atoms: O_8  and  C_34
REMARK    4  A    between atoms: C_13  and  C_25
REMARK    5  A    between atoms: C_14  and  C_28
REMARK    6  A    between atoms: C_18  and  C_29
REMARK    7  A    between atoms: C_37  and  C_38
REMARK                            x       y       z     vdW  Elec       q    Type
REMARK                         _______ _______ _______ _____ _____    ______ ____
ROOT
ATOM      1  O   UNL     1       2.170  -0.587  -5.003  0.00  0.00    -0.337 OA
ATOM      2  O   UNL     1       0.038  -0.366  -4.782  0.00  0.00    -0.341 OA
ATOM      3  O   UNL     1       0.036  -1.501  -3.240  0.00  0.00    -0.343 OA
ATOM      4  C   UNL     1       1.982   2.620  -9.312  0.00  0.00    +0.075 C 
ATOM      5  C   UNL     1       1.501   2.130  -8.529  0.00  0.00    +0.025 C 
ATOM      6  C   UNL     1       2.014   1.563  -7.885  0.00  0.00    +0.008 C 
ATOM      7  C   UNL     1       3.012   2.518  -9.426  0.00  0.00    +0.004 C 
ATOM      8  C   UNL     1       1.539   1.099  -7.138  0.00  0.00    +0.034 C 
ATOM      9  C   UNL     1       0.550   1.201  -7.035  0.00  0.00    +0.005 C 
ATOM     10  C   UNL     1       3.045   1.447  -7.979  0.00  0.00    +0.005 C 
ATOM     11  C   UNL     1       3.548   1.928  -8.755  0.00  0.00    +0.010 C 
ATOM     12  C   UNL     1       3.297   3.074 -10.250  0.00  0.00    +0.027 C 
ATOM     13  C   UNL     1       0.511   2.232  -8.426  0.00  0.00    +0.007 C 
ATOM     14  C   UNL     1       1.638   3.239 -10.068  0.00  0.00    +0.036 C 
ATOM     15  C   UNL     1       0.036   1.768  -7.679  0.00  0.00    +0.005 C 
ATOM     16  C   UNL     1       2.450   3.519 -10.647  0.00  0.00    +0.011 C 
ATOM     17  C   UNL     1       2.087   0.512  -6.475  0.00  0.00    +0.049 C 
ATOM     18  C   UNL     1       0.040   0.723  -6.261  0.00  0.00    +0.038 C 
ATOM     19  C   UNL     1       4.002   2.420  -9.535  0.00  0.00    +0.014 C 
ATOM     20  C   UNL     1       1.599   0.025  -5.694  0.00  0.00    +0.152 C 
ATOM     21  C   UNL     1       0.569   0.131  -5.586  0.00  0.00    +0.151 C 
ATOM     22  C   UNL     1       1.662  -1.094  -4.190  0.00  0.00    +0.247 C 
ATOM     23  C   UNL     1       0.588  -0.983  -4.079  0.00  0.00    +0.314 C 
ATOM     24  C   UNL     1       2.257  -1.731  -3.471  0.00  0.00    +0.181 C 
ATOM     25  C   UNL     1       1.728  -2.259  -2.624  0.00  0.00    +0.068 C 
ATOM     26  C   UNL     1       0.609  -2.143  -2.508  0.00  0.00    +0.121 C 
ATOM     27  C   UNL     1       0.130  -2.606  -1.762  0.00  0.00    +0.038 C 
ENDROOT
BRANCH  12  30
ATOM     28  O   UNL     1       5.598   2.895 -11.419  0.00  0.00    -0.457 OA
ATOM     29  O   UNL     1       6.547   4.290 -10.842  0.00  0.00    -0.246 OA
ATOM     30  C   UNL     1       4.228   3.167 -10.604  0.00  0.00    -0.022 C 
ATOM     31  C   UNL     1       4.676   2.550 -11.251  0.00  0.00    +0.264 C 
ATOM     32  C   UNL     1       4.874   3.894 -10.372  0.00  0.00    +0.094 C 
ATOM     33  C   UNL     1       5.722   3.726 -10.876  0.00  0.00    +0.332 C 
ENDBRANCH  12  30
BRANCH   4  34
ATOM     34  O   UNL     1       0.993   2.718  -9.202  0.00  0.00    -0.388 OA
ATOM     35  H   UNL     1       0.755   3.252  -8.998  0.00  0.00    +0.210 HD
ENDBRANCH   4  34
BRANCH   8  37
ATOM     36  O   UNL     1       2.963   1.132  -6.152  0.00  0.00    -0.300 OA
ATOM     37  C   UNL     1       2.475   0.799  -6.959  0.00  0.00    +0.230 C 
ENDBRANCH   8  37
BRANCH  22  38
ATOM     38  O   UNL     1       2.651  -1.196  -4.293  0.00  0.00    -0.359 OA
ATOM     39  H   UNL     1       2.892  -1.746  -4.450  0.00  0.00    +0.213 HD
ENDBRANCH  22  38
BRANCH  24  40
ATOM     40  O   UNL     1       3.246  -1.826  -3.583  0.00  0.00    -0.386 OA
ATOM     41  H   UNL     1       3.610  -1.892  -3.085  0.00  0.00    +0.210 HD
ENDBRANCH  24  40
TORSDOF 5
ENDMDL
MODEL 2
REMARK VINA RESULT:      -8.1     10.014     13.956
REMARK  Name = 16142
REMARK  7 active torsions:
REMARK  status: ('A' for Active; 'I' for Inactive)
REMARK    1  A    between atoms: O_1  and  C_10
REMARK    2  A    between atoms: O_7  and  C_30
REMARK    3  A    between atoms: O_8  and  C_34
REMARK    4  A    between atoms: C_13  and  C_25
REMARK    5  A    between atoms: C_14  and  C_28
REMARK    6  A    between atoms: C_18  and  C_29
REMARK    7  A    between atoms: C_37  and  C_38
REMARK                            x       y       z     vdW  Elec       q    Type
REMARK                         _______ _______ _______ _____ _____    ______ ____
ROOT
ATOM      1  O   UNL     1      -3.714  -6.058   5.096  0.00  0.00    -0.337 OA
ATOM      2  O   UNL     1      -3.789  -5.574   7.195  0.00  0.00    -0.341 OA
ATOM      3  O   UNL     1      -3.830  -7.429   7.667  0.00  0.00    -0.343 OA
ATOM      4  C   UNL     1      -3.607  -0.806   3.962  0.00  0.00    +0.075 C 
ATOM      5  C   UNL     1      -3.643  -1.580   4.659  0.00  0.00    +0.025 C 
ATOM      6  C   UNL     1      -3.644  -2.536   4.366  0.00  0.00    +0.008 C 
ATOM      7  C   UNL     1      -3.571  -1.032   2.946  0.00  0.00    +0.004 C 
ATOM      8  C   UNL     1      -3.679  -3.267   5.047  0.00  0.00    +0.034 C 
ATOM      9  C   UNL     1      -3.713  -3.043   6.021  0.00  0.00    +0.005 C 
ATOM     10  C   UNL     1      -3.608  -2.785   3.355  0.00  0.00    +0.005 C 
ATOM     11  C   UNL     1      -3.571  -2.029   2.641  0.00  0.00    +0.010 C 
ATOM     12  C   UNL     1      -3.540  -0.140   2.423  0.00  0.00    +0.027 C 
ATOM     13  C   UNL     1      -3.678  -1.355   5.633  0.00  0.00    +0.007 C 
ATOM     14  C   UNL     1      -3.598   0.225   4.059  0.00  0.00    +0.036 C 
ATOM     15  C   UNL     1      -3.713  -2.087   6.314  0.00  0.00    +0.005 C 
ATOM     16  C   UNL     1      -3.557   0.636   3.109  0.00  0.00    +0.011 C 
ATOM     17  C   UNL     1      -3.678  -4.258   4.727  0.00  0.00    +0.049 C 
ATOM     18  C   UNL     1      -3.750  -3.794   6.742  0.00  0.00    +0.038 C 
ATOM     19  C   UNL     1      -3.536  -1.250   1.970  0.00  0.00    +0.014 C 
ATOM     20  C   UNL     1      -3.715  -5.026   5.430  0.00  0.00    +0.152 C 
ATOM     21  C   UNL     1      -3.751  -4.793   6.444  0.00  0.00    +0.151 C 
ATOM     22  C   UNL     1      -3.752  -6.858   5.828  0.00  0.00    +0.247 C 
ATOM     23  C   UNL     1      -3.790  -6.614   6.885  0.00  0.00    +0.314 C 
ATOM     24  C   UNL     1      -3.752  -7.933   5.481  0.00  0.00    +0.181 C 
ATOM     25  C   UNL     1      -3.791  -8.767   6.243  0.00  0.00    +0.068 C 
ATOM     26  C   UNL     1      -3.831  -8.512   7.344  0.00  0.00    +0.121 C 
ATOM     27  C   UNL     1      -3.866  -9.242   8.028  0.00  0.00    +0.038 C 
ENDROOT
BRANCH  12  30
ATOM     28  O   UNL     1      -2.964  -0.044  -0.097  0.00  0.00    -0.457 OA
ATOM     29  O   UNL     1      -4.445   0.519  -0.914  0.00  0.00    -0.246 OA
ATOM     30  C   UNL     1      -3.500  -0.042   1.429  0.00  0.00    -0.022 C 
ATOM     31  C   UNL     1      -2.707  -0.231   0.850  0.00  0.00    +0.264 C 
ATOM     32  C   UNL     1      -4.248   0.262   0.839  0.00  0.00    +0.094 C 
ATOM     33  C   UNL     1      -3.917   0.261  -0.105  0.00  0.00    +0.332 C 
ENDBRANCH  12  30
BRANCH   4  34
ATOM     34  O   UNL     1      -3.642  -0.590   4.938  0.00  0.00    -0.388 OA
ATOM     35  H   UNL     1      -4.144  -0.738   5.270  0.00  0.00    +0.210 HD
ENDBRANCH   4  34
BRANCH   8  37
ATOM     36  O   UNL     1      -2.829  -4.327   3.972  0.00  0.00    -0.300 OA
ATOM     37  C   UNL     1      -3.653  -3.812   4.209  0.00  0.00    +0.230 C 
ENDBRANCH   8  37
BRANCH  22  38
ATOM     38  O   UNL     1      -3.717  -7.082   4.854  0.00  0.00    -0.359 OA
ATOM     39  H   UNL     1      -3.243  -6.885   4.508  0.00  0.00    +0.213 HD
ENDBRANCH  22  38
BRANCH  24  40
ATOM     40  O   UNL     1      -3.717  -8.147   4.504  0.00  0.00    -0.386 OA
ATOM     41  H   UNL     1      -4.144  -7.913   4.120  0.00  0.00    +0.210 HD
ENDBRANCH  24  40
TORSDOF 5
ENDMDL
MODEL 3
REMARK VINA RESULT:      -8.1     10.299     13.531
REMARK  Name = 16142
REMARK  7 active torsions:
REMARK  status: ('A' for Active; 'I' for Inactive)
REMARK    1  A    between atoms: O_1  and  C_10
REMARK    2  A    between atoms: O_7  and  C_30
REMARK    3  A    between atoms: O_8  and  C_34
REMARK    4  A    between atoms: C_13  and  C_25
REMARK    5  A    between atoms: C_14  and  C_28
REMARK    6  A    between atoms: C_18  and  C_29
REMARK    7  A    between atoms: C_37  and  C_38
REMARK                            x       y       z     vdW  Elec       q    Type
REMARK                         _______ _______ _______ _____ _____    ______ ____
ROOT
ATOM      1  O   UNL     1      -3.753  -5.310   5.911  0.00  0.00    -0.337 OA
ATOM      2  O   UNL     1      -1.882  -6.366   5.741  0.00  0.00    -0.341 OA
ATOM      3  O   UNL     1      -2.396  -7.588   7.122  0.00  0.00    -0.343 OA
ATOM      4  C   UNL     1      -2.141  -1.975   2.017  0.00  0.00    +0.075 C 
ATOM      5  C   UNL     1      -1.964  -2.794   2.636  0.00  0.00    +0.025 C 
ATOM      6  C   UNL     1      -2.648  -3.092   3.302  0.00  0.00    +0.008 C 
ATOM      7  C   UNL     1      -3.043  -1.460   2.093  0.00  0.00    +0.004 C 
ATOM      8  C   UNL     1      -2.464  -3.880   3.889  0.00  0.00    +0.034 C 
ATOM      9  C   UNL     1      -1.596  -4.370   3.811  0.00  0.00    +0.005 C 
ATOM     10  C   UNL     1      -3.557  -2.592   3.395  0.00  0.00    +0.005 C 
ATOM     11  C   UNL     1      -3.756  -1.770   2.787  0.00  0.00    +0.010 C 
ATOM     12  C   UNL     1      -3.027  -0.689   1.403  0.00  0.00    +0.027 C 
ATOM     13  C   UNL     1      -1.096  -3.284   2.557  0.00  0.00    +0.007 C 
ATOM     14  C   UNL     1      -1.575  -1.518   1.280  0.00  0.00    +0.036 C 
ATOM     15  C   UNL     1      -0.912  -4.072   3.145  0.00  0.00    +0.005 C 
ATOM     16  C   UNL     1      -2.121  -0.724   0.901  0.00  0.00    +0.011 C 
ATOM     17  C   UNL     1      -3.186  -4.179   4.577  0.00  0.00    +0.049 C 
ATOM     18  C   UNL     1      -1.390  -5.193   4.415  0.00  0.00    +0.038 C 
ATOM     19  C   UNL     1      -3.909  -0.965   2.166  0.00  0.00    +0.014 C 
ATOM     20  C   UNL     1      -3.001  -4.999   5.193  0.00  0.00    +0.152 C 
ATOM     21  C   UNL     1      -2.098  -5.509   5.112  0.00  0.00    +0.151 C 
ATOM     22  C   UNL     1      -3.561  -6.164   6.551  0.00  0.00    +0.247 C 
ATOM     23  C   UNL     1      -2.619  -6.696   6.466  0.00  0.00    +0.314 C 
ATOM     24  C   UNL     1      -4.345  -6.488   7.299  0.00  0.00    +0.181 C 
ATOM     25  C   UNL     1      -4.145  -7.378   7.966  0.00  0.00    +0.068 C 
ATOM     26  C   UNL     1      -3.163  -7.932   7.877  0.00  0.00    +0.121 C 
ATOM     27  C   UNL     1      -2.976  -8.720   8.463  0.00  0.00    +0.038 C 
ENDROOT
BRANCH  12  30
ATOM     28  O   UNL     1      -5.001   0.767   0.581  0.00  0.00    -0.457 OA
ATOM     29  O   UNL     1      -5.214   2.039   1.811  0.00  0.00    -0.246 OA
ATOM     30  C   UNL     1      -3.758  -0.024   1.247  0.00  0.00    -0.022 C 
ATOM     31  C   UNL     1      -4.380  -0.007   0.464  0.00  0.00    +0.264 C 
ATOM     32  C   UNL     1      -3.994   0.740   1.847  0.00  0.00    +0.094 C 
ATOM     33  C   UNL     1      -4.763   1.230   1.435  0.00  0.00    +0.332 C 
ENDBRANCH  12  30
BRANCH   4  34
ATOM     34  O   UNL     1      -1.275  -2.470   1.944  0.00  0.00    -0.388 OA
ATOM     35  H   UNL     1      -0.851  -2.293   1.529  0.00  0.00    +0.210 HD
ENDBRANCH   4  34
BRANCH   8  37
ATOM     36  O   UNL     1      -4.146  -4.256   4.056  0.00  0.00    -0.300 OA
ATOM     37  C   UNL     1      -3.378  -3.635   4.210  0.00  0.00    +0.230 C 
ENDBRANCH   8  37
BRANCH  22  38
ATOM     38  O   UNL     1      -4.429  -5.674   6.630  0.00  0.00    -0.359 OA
ATOM     39  H   UNL     1      -4.681  -5.408   6.130  0.00  0.00    +0.213 HD
ENDBRANCH  22  38
BRANCH  24  40
ATOM     40  O   UNL     1      -5.210  -5.991   7.369  0.00  0.00    -0.386 OA
ATOM     41  H   UNL     1      -5.211  -5.394   7.536  0.00  0.00    +0.210 HD
ENDBRANCH  24  40
TORSDOF 5
ENDMDL
MODEL 4
REMARK VINA RESULT:      -7.9      5.424     10.412
REMARK  Name = 16142
REMARK  7 active torsions:
REMARK  status: ('A' for Active; 'I' for Inactive)
REMARK    1  A    between atoms: O_1  and  C_10
REMARK    2  A    between atoms: O_7  and  C_30
REMARK    3  A    between atoms: O_8  and  C_34
REMARK    4  A    between atoms: C_13  and  C_25
REMARK    5  A    between atoms: C_14  and  C_28
REMARK    6  A    between atoms: C_18  and  C_29
REMARK    7  A    between atoms: C_37  and  C_38
REMARK                            x       y       z     vdW  Elec       q    Type
REMARK                         _______ _______ _______ _____ _____    ______ ____
ROOT
ATOM      1  O   UNL     1       1.298  -1.945  -2.584  0.00  0.00    -0.337 OA
ATOM      2  O   UNL     1       1.801  -4.036  -2.443  0.00  0.00    -0.341 OA
ATOM      3  O   UNL     1       3.057  -3.877  -3.878  0.00  0.00    -0.343 OA
ATOM      4  C   UNL     1      -2.183  -2.584   1.460  0.00  0.00    +0.075 C 
ATOM      5  C   UNL     1      -1.473  -2.979   0.809  0.00  0.00    +0.025 C 
ATOM      6  C   UNL     1      -1.026  -2.402   0.125  0.00  0.00    +0.008 C 
ATOM      7  C   UNL     1      -2.432  -1.574   1.398  0.00  0.00    +0.004 C 
ATOM      8  C   UNL     1      -0.345  -2.795  -0.493  0.00  0.00    +0.034 C 
ATOM      9  C   UNL     1      -0.112  -3.765  -0.428  0.00  0.00    +0.005 C 
ATOM     10  C   UNL     1      -1.258  -1.390   0.045  0.00  0.00    +0.005 C 
ATOM     11  C   UNL     1      -1.966  -0.973   0.686  0.00  0.00    +0.010 C 
ATOM     12  C   UNL     1      -3.147  -1.378   2.120  0.00  0.00    +0.027 C 
ATOM     13  C   UNL     1      -1.239  -3.949   0.874  0.00  0.00    +0.007 C 
ATOM     14  C   UNL     1      -2.747  -3.004   2.220  0.00  0.00    +0.036 C 
ATOM     15  C   UNL     1      -0.558  -4.342   0.256  0.00  0.00    +0.005 C 
ATOM     16  C   UNL     1      -3.342  -2.260   2.628  0.00  0.00    +0.011 C 
ATOM     17  C   UNL     1       0.112  -2.182  -1.200  0.00  0.00    +0.049 C 
ATOM     18  C   UNL     1       0.595  -4.189  -1.065  0.00  0.00    +0.038 C 
ATOM     19  C   UNL     1      -2.670  -0.604   1.338  0.00  0.00    +0.014 C 
ATOM     20  C   UNL     1       0.822  -2.584  -1.847  0.00  0.00    +0.152 C 
ATOM     21  C   UNL     1       1.065  -3.594  -1.780  0.00  0.00    +0.151 C 
ATOM     22  C   UNL     1       2.037  -2.364  -3.258  0.00  0.00    +0.247 C 
ATOM     23  C   UNL     1       2.291  -3.417  -3.187  0.00  0.00    +0.314 C 
ATOM     24  C   UNL     1       2.533  -1.699  -4.026  0.00  0.00    +0.181 C 
ATOM     25  C   UNL     1       3.303  -2.135  -4.728  0.00  0.00    +0.068 C 
ATOM     26  C   UNL     1       3.567  -3.232  -4.654  0.00  0.00    +0.121 C 
ATOM     27  C   UNL     1       4.247  -3.628  -5.271  0.00  0.00    +0.038 C 
ENDROOT
BRANCH  12  30
ATOM     28  O   UNL     1      -3.946   0.930   2.972  0.00  0.00    -0.457 OA
ATOM     29  O   UNL     1      -5.214   1.457   1.836  0.00  0.00    -0.246 OA
ATOM     30  C   UNL     1      -3.576  -0.493   2.297  0.00  0.00    -0.022 C 
ATOM     31  C   UNL     1      -3.359   0.125   3.053  0.00  0.00    +0.264 C 
ATOM     32  C   UNL     1      -4.297  -0.069   1.749  0.00  0.00    +0.094 C 
ATOM     33  C   UNL     1      -4.526   0.811   2.167  0.00  0.00    +0.332 C 
ENDBRANCH  12  30
BRANCH   4  34
ATOM     34  O   UNL     1      -1.945  -3.553   1.519  0.00  0.00    -0.388 OA
ATOM     35  H   UNL     1      -1.453  -3.771   1.211  0.00  0.00    +0.210 HD
ENDBRANCH   4  34
BRANCH   8  37
ATOM     36  O   UNL     1      -0.658  -1.629  -1.735  0.00  0.00    -0.300 OA
ATOM     37  C   UNL     1      -0.342  -1.848  -0.812  0.00  0.00    +0.230 C 
ENDBRANCH   8  37
BRANCH  22  38
ATOM     38  O   UNL     1       1.804  -1.394  -3.324  0.00  0.00    -0.359 OA
ATOM     39  H   UNL     1       1.214  -1.222  -3.407  0.00  0.00    +0.213 HD
ENDBRANCH  22  38
BRANCH  24  40
ATOM     40  O   UNL     1       2.292  -0.730  -4.082  0.00  0.00    -0.386 OA
ATOM     41  H   UNL     1       1.702  -0.553  -4.014  0.00  0.00    +0.210 HD
ENDBRANCH  24  40
TORSDOF 5
ENDMDL
MODEL 5
REMARK VINA RESULT:      -7.7      3.476      7.073
REMARK  Name = 16142
REMARK  7 active torsions:
REMARK  status: ('A' for Active; 'I' for Inactive)
REMARK    1  A    between atoms: O_1  and  C_10
REMARK    2  A    between atoms: O_7  and  C_30
REMARK    3  A    between atoms: O_8  and  C_34
REMARK    4  A    between atoms: C_13  and  C_25
REMARK    5  A    between atoms: C_14  and  C_28
REMARK    6  A    between atoms: C_18  and  C_29
REMARK    7  A    between atoms: C_37  and  C_38
REMARK                            x       y       z     vdW  Elec       q    Type
REMARK                         _______ _______ _______ _____ _____    ______ ____
ROOT
ATOM      1  O   UNL     1       7.294   3.766  -7.303  0.00  0.00    -0.337 OA
ATOM      2  O   UNL     1       8.335   4.518  -9.033  0.00  0.00    -0.341 OA
ATOM      3  O   UNL     1       9.923   4.814  -8.005  0.00  0.00    -0.343 OA
ATOM      4  C   UNL     1       2.931   3.005 -10.347  0.00  0.00    +0.075 C 
ATOM      5  C   UNL     1       3.921   3.315 -10.247  0.00  0.00    +0.025 C 
ATOM      6  C   UNL     1       4.388   3.267  -9.365  0.00  0.00    +0.008 C 
ATOM      7  C   UNL     1       2.421   2.640  -9.515  0.00  0.00    +0.004 C 
ATOM      8  C   UNL     1       5.338   3.568  -9.284  0.00  0.00    +0.034 C 
ATOM      9  C   UNL     1       5.821   3.917 -10.087  0.00  0.00    +0.005 C 
ATOM     10  C   UNL     1       3.898   2.905  -8.519  0.00  0.00    +0.005 C 
ATOM     11  C   UNL     1       2.908   2.590  -8.595  0.00  0.00    +0.010 C 
ATOM     12  C   UNL     1       1.464   2.387  -9.815  0.00  0.00    +0.027 C 
ATOM     13  C   UNL     1       4.404   3.664 -11.050  0.00  0.00    +0.007 C 
ATOM     14  C   UNL     1       2.284   2.975 -11.154  0.00  0.00    +0.036 C 
ATOM     15  C   UNL     1       5.354   3.965 -10.970  0.00  0.00    +0.005 C 
ATOM     16  C   UNL     1       1.378   2.594 -10.826  0.00  0.00    +0.011 C 
ATOM     17  C   UNL     1       5.811   3.512  -8.359  0.00  0.00    +0.049 C 
ATOM     18  C   UNL     1       6.811   4.234 -10.020  0.00  0.00    +0.038 C 
ATOM     19  C   UNL     1       1.932   2.290  -8.716  0.00  0.00    +0.014 C 
ATOM     20  C   UNL     1       6.801   3.824  -8.267  0.00  0.00    +0.152 C 
ATOM     21  C   UNL     1       7.304   4.187  -9.103  0.00  0.00    +0.151 C 
ATOM     22  C   UNL     1       8.325   4.090  -7.207  0.00  0.00    +0.247 C 
ATOM     23  C   UNL     1       8.849   4.469  -8.079  0.00  0.00    +0.314 C 
ATOM     24  C   UNL     1       8.839   4.030  -6.202  0.00  0.00    +0.181 C 
ATOM     25  C   UNL     1       9.912   4.368  -6.103  0.00  0.00    +0.068 C 
ATOM     26  C   UNL     1      10.458   4.763  -7.011  0.00  0.00    +0.121 C 
ATOM     27  C   UNL     1      11.408   5.065  -6.935  0.00  0.00    +0.038 C 
ENDROOT
BRANCH  12  30
ATOM     28  O   UNL     1      -0.476   1.889  -8.177  0.00  0.00    -0.457 OA
ATOM     29  O   UNL     1      -0.690   0.119  -8.200  0.00  0.00    -0.246 OA
ATOM     30  C   UNL     1       0.745   2.010  -9.231  0.00  0.00    -0.022 C 
ATOM     31  C   UNL     1       0.135   2.533  -8.636  0.00  0.00    +0.264 C 
ATOM     32  C   UNL     1       0.511   1.042  -9.140  0.00  0.00    +0.094 C 
ATOM     33  C   UNL     1      -0.245   0.967  -8.489  0.00  0.00    +0.332 C 
ENDBRANCH  12  30
BRANCH   4  34
ATOM     34  O   UNL     1       3.421   3.355 -11.145  0.00  0.00    -0.388 OA
ATOM     35  H   UNL     1       3.379   3.955 -11.296  0.00  0.00    +0.210 HD
ENDBRANCH   4  34
BRANCH   8  37
ATOM     36  O   UNL     1       5.137   3.977  -7.613  0.00  0.00    -0.300 OA
ATOM     37  C   UNL     1       5.165   3.290  -8.340  0.00  0.00    +0.230 C 
ENDBRANCH   8  37
BRANCH  22  38
ATOM     38  O   UNL     1       7.842   3.741  -6.404  0.00  0.00    -0.359 OA
ATOM     39  H   UNL     1       7.840   3.133  -6.284  0.00  0.00    +0.213 HD
ENDBRANCH  22  38
BRANCH  24  40
ATOM     40  O   UNL     1       8.346   3.679  -5.406  0.00  0.00    -0.386 OA
ATOM     41  H   UNL     1       8.317   3.068  -5.304  0.00  0.00    +0.210 HD
ENDBRANCH  24  40
TORSDOF 5
ENDMDL
MODEL 6
REMARK VINA RESULT:      -7.5      9.977     15.319
REMARK  Name = 16142
REMARK  7 active torsions:
REMARK  status: ('A' for Active; 'I' for Inactive)
REMARK    1  A    between atoms: O_1  and  C_10
REMARK    2  A    between atoms: O_7  and  C_30
REMARK    3  A    between atoms: O_8  and  C_34
REMARK    4  A    between atoms: C_13  and  C_25
REMARK    5  A    between atoms: C_14  and  C_28
REMARK    6  A    between atoms: C_18  and  C_29
REMARK    7  A    between atoms: C_37  and  C_38
REMARK                            x       y       z     vdW  Elec       q    Type
REMARK                         _______ _______ _______ _____ _____    ______ ____
ROOT
ATOM      1  O   UNL     1      -3.936  -1.508   2.881  0.00  0.00    -0.337 OA
ATOM      2  O   UNL     1      -2.508  -1.678   1.276  0.00  0.00    -0.341 OA
ATOM      3  O   UNL     1      -3.068  -0.002   0.540  0.00  0.00    -0.343 OA
ATOM      4  C   UNL     1      -2.234  -6.230   4.800  0.00  0.00    +0.075 C 
ATOM      5  C   UNL     1      -2.179  -5.471   4.089  0.00  0.00    +0.025 C 
ATOM      6  C   UNL     1      -2.777  -4.672   4.144  0.00  0.00    +0.008 C 
ATOM      7  C   UNL     1      -2.922  -6.155   5.579  0.00  0.00    +0.004 C 
ATOM      8  C   UNL     1      -2.713  -3.951   3.453  0.00  0.00    +0.034 C 
ATOM      9  C   UNL     1      -2.050  -4.030   2.708  0.00  0.00    +0.005 C 
ATOM     10  C   UNL     1      -3.472  -4.575   4.914  0.00  0.00    +0.005 C 
ATOM     11  C   UNL     1      -3.545  -5.322   5.636  0.00  0.00    +0.010 C 
ATOM     12  C   UNL     1      -2.823  -6.997   6.172  0.00  0.00    +0.027 C 
ATOM     13  C   UNL     1      -1.517  -5.550   3.344  0.00  0.00    +0.007 C 
ATOM     14  C   UNL     1      -1.716  -7.119   4.919  0.00  0.00    +0.036 C 
ATOM     15  C   UNL     1      -1.452  -4.829   2.654  0.00  0.00    +0.005 C 
ATOM     16  C   UNL     1      -2.079  -7.592   5.765  0.00  0.00    +0.011 C 
ATOM     17  C   UNL     1      -3.342  -3.124   3.524  0.00  0.00    +0.049 C 
ATOM     18  C   UNL     1      -1.971  -3.287   1.982  0.00  0.00    +0.038 C 
ATOM     19  C   UNL     1      -3.582  -6.082   6.327  0.00  0.00    +0.014 C 
ATOM     20  C   UNL     1      -3.281  -2.369   2.809  0.00  0.00    +0.152 C 
ATOM     21  C   UNL     1      -2.591  -2.451   2.033  0.00  0.00    +0.151 C 
ATOM     22  C   UNL     1      -3.873  -0.721   2.137  0.00  0.00    +0.247 C 
ATOM     23  C   UNL     1      -3.153  -0.807   1.328  0.00  0.00    +0.314 C 
ATOM     24  C   UNL     1      -4.555   0.176   2.213  0.00  0.00    +0.181 C 
ATOM     25  C   UNL     1      -4.489   0.995   1.437  0.00  0.00    +0.068 C 
ATOM     26  C   UNL     1      -3.740   0.905   0.595  0.00  0.00    +0.121 C 
ATOM     27  C   UNL     1      -3.673   1.624  -0.097  0.00  0.00    +0.038 C 
ENDROOT
BRANCH  12  30
ATOM     28  O   UNL     1      -3.885  -7.200   8.522  0.00  0.00    -0.457 OA
ATOM     29  O   UNL     1      -5.214  -8.376   8.357  0.00  0.00    -0.246 OA
ATOM     30  C   UNL     1      -3.353  -7.202   6.995  0.00  0.00    -0.022 C 
ATOM     31  C   UNL     1      -3.206  -6.808   7.902  0.00  0.00    +0.264 C 
ATOM     32  C   UNL     1      -4.123  -7.838   7.054  0.00  0.00    +0.094 C 
ATOM     33  C   UNL     1      -4.452  -7.836   7.999  0.00  0.00    +0.332 C 
ENDBRANCH  12  30
BRANCH   4  34
ATOM     34  O   UNL     1      -1.575  -6.302   4.052  0.00  0.00    -0.388 OA
ATOM     35  H   UNL     1      -1.562  -5.871   3.607  0.00  0.00    +0.210 HD
ENDBRANCH   4  34
BRANCH   8  37
ATOM     36  O   UNL     1      -3.269  -2.765   4.587  0.00  0.00    -0.300 OA
ATOM     37  C   UNL     1      -3.440  -3.576   4.027  0.00  0.00    +0.230 C 
ENDBRANCH   8  37
BRANCH  22  38
ATOM     38  O   UNL     1      -4.535  -0.642   2.882  0.00  0.00    -0.359 OA
ATOM     39  H   UNL     1      -4.712  -0.083   3.081  0.00  0.00    +0.213 HD
ENDBRANCH  22  38
BRANCH  24  40
ATOM     40  O   UNL     1      -5.214   0.245   2.962  0.00  0.00    -0.386 OA
ATOM     41  H   UNL     1      -5.435   0.799   3.131  0.00  0.00    +0.210 HD
ENDBRANCH  24  40
TORSDOF 5
ENDMDL
MODEL 7
REMARK VINA RESULT:      -7.5      7.357      9.382
REMARK  Name = 16142
REMARK  7 active torsions:
REMARK  status: ('A' for Active; 'I' for Inactive)
REMARK    1  A    between atoms: O_1  and  C_10
REMARK    2  A    between atoms: O_7  and  C_30
REMARK    3  A    between atoms: O_8  and  C_34
REMARK    4  A    between atoms: C_13  and  C_25
REMARK    5  A    between atoms: C_14  and  C_28
REMARK    6  A    between atoms: C_18  and  C_29
REMARK    7  A    between atoms: C_37  and  C_38
REMARK                            x       y       z     vdW  Elec       q    Type
REMARK                         _______ _______ _______ _____ _____    ______ ____
ROOT
ATOM      1  O   UNL     1      -2.150  -0.862  -0.067  0.00  0.00    -0.337 OA
ATOM      2  O   UNL     1      -2.829  -1.803   1.748  0.00  0.00    -0.341 OA
ATOM      3  O   UNL     1      -3.990  -0.329   2.132  0.00  0.00    -0.343 OA
ATOM      4  C   UNL     1       1.046  -5.085  -0.977  0.00  0.00    +0.075 C 
ATOM      5  C   UNL     1       0.341  -4.596  -0.386  0.00  0.00    +0.025 C 
ATOM      6  C   UNL     1      -0.020  -3.702  -0.651  0.00  0.00    +0.008 C 
ATOM      7  C   UNL     1       1.380  -4.636  -1.856  0.00  0.00    +0.004 C 
ATOM      8  C   UNL     1      -0.696  -3.245  -0.073  0.00  0.00    +0.034 C 
ATOM      9  C   UNL     1      -1.011  -3.681   0.769  0.00  0.00    +0.005 C 
ATOM     10  C   UNL     1       0.299  -3.234  -1.526  0.00  0.00    +0.005 C 
ATOM     11  C   UNL     1       1.003  -3.705  -2.132  0.00  0.00    +0.010 C 
ATOM     12  C   UNL     1       2.069  -5.271  -2.295  0.00  0.00    +0.027 C 
ATOM     13  C   UNL     1       0.026  -5.033   0.457  0.00  0.00    +0.007 C 
ATOM     14  C   UNL     1       1.533  -5.994  -0.880  0.00  0.00    +0.036 C 
ATOM     15  C   UNL     1      -0.650  -4.575   1.034  0.00  0.00    +0.005 C 
ATOM     16  C   UNL     1       2.163  -6.109  -1.693  0.00  0.00    +0.011 C 
ATOM     17  C   UNL     1      -1.063  -2.314  -0.363  0.00  0.00    +0.049 C 
ATOM     18  C   UNL     1      -1.715  -3.217   1.381  0.00  0.00    +0.038 C 
ATOM     19  C   UNL     1       1.699  -4.205  -2.700  0.00  0.00    +0.014 C 
ATOM     20  C   UNL     1      -1.767  -1.831   0.234  0.00  0.00    +0.152 C 
ATOM     21  C   UNL     1      -2.096  -2.286   1.111  0.00  0.00    +0.151 C 
ATOM     22  C   UNL     1      -2.884  -0.359   0.554  0.00  0.00    +0.247 C 
ATOM     23  C   UNL     1      -3.226  -0.833   1.468  0.00  0.00    +0.314 C 
ATOM     24  C   UNL     1      -3.282   0.651   0.240  0.00  0.00    +0.181 C 
ATOM     25  C   UNL     1      -4.047   1.175   0.887  0.00  0.00    +0.068 C 
ATOM     26  C   UNL     1      -4.403   0.681   1.839  0.00  0.00    +0.121 C 
ATOM     27  C   UNL     1      -5.079   1.136   2.419  0.00  0.00    +0.038 C 
ENDROOT
BRANCH  12  30
ATOM     28  O   UNL     1       2.928  -5.042  -4.724  0.00  0.00    -0.457 OA
ATOM     29  O   UNL     1       4.545  -4.301  -4.601  0.00  0.00    -0.246 OA
ATOM     30  C   UNL     1       2.558  -5.106  -3.151  0.00  0.00    -0.022 C 
ATOM     31  C   UNL     1       2.225  -5.317  -4.070  0.00  0.00    +0.264 C 
ATOM     32  C   UNL     1       3.468  -4.699  -3.238  0.00  0.00    +0.094 C 
ATOM     33  C   UNL     1       3.697  -4.660  -4.211  0.00  0.00    +0.332 C 
ENDBRANCH  12  30
BRANCH   4  34
ATOM     34  O   UNL     1       0.726  -5.515  -0.133  0.00  0.00    -0.388 OA
ATOM     35  H   UNL     1       0.901  -5.288   0.417  0.00  0.00    +0.210 HD
ENDBRANCH   4  34
BRANCH   8  37
ATOM     36  O   UNL     1      -0.147  -1.697  -0.623  0.00  0.00    -0.300 OA
ATOM     37  C   UNL     1      -0.605  -2.567  -0.803  0.00  0.00    +0.230 C 
ENDBRANCH   8  37
BRANCH  22  38
ATOM     38  O   UNL     1      -2.569   0.078  -0.289  0.00  0.00    -0.359 OA
ATOM     39  H   UNL     1      -2.696   0.675  -0.395  0.00  0.00    +0.213 HD
ENDBRANCH  22  38
BRANCH  24  40
ATOM     40  O   UNL     1      -2.960   1.079  -0.605  0.00  0.00    -0.386 OA
ATOM     41  H   UNL     1      -3.197   0.904  -1.150  0.00  0.00    +0.210 HD
ENDBRANCH  24  40
TORSDOF 5
ENDMDL
MODEL 8
REMARK VINA RESULT:      -7.4     10.324     14.149
REMARK  Name = 16142
REMARK  7 active torsions:
REMARK  status: ('A' for Active; 'I' for Inactive)
REMARK    1  A    between atoms: O_1  and  C_10
REMARK    2  A    between atoms: O_7  and  C_30
REMARK    3  A    between atoms: O_8  and  C_34
REMARK    4  A    between atoms: C_13  and  C_25
REMARK    5  A    between atoms: C_14  and  C_28
REMARK    6  A    between atoms: C_18  and  C_29
REMARK    7  A    between atoms: C_37  and  C_38
REMARK                            x       y       z     vdW  Elec       q    Type
REMARK                         _______ _______ _______ _____ _____    ______ ____
ROOT
ATOM      1  O   UNL     1      -3.017  -1.510   1.932  0.00  0.00    -0.337 OA
ATOM      2  O   UNL     1      -4.600  -0.892   3.258  0.00  0.00    -0.341 OA
ATOM      3  O   UNL     1      -4.944   0.663   2.195  0.00  0.00    -0.343 OA
ATOM      4  C   UNL     1      -2.195  -5.819   5.037  0.00  0.00    +0.075 C 
ATOM      5  C   UNL     1      -2.715  -4.940   4.830  0.00  0.00    +0.025 C 
ATOM      6  C   UNL     1      -2.489  -4.386   4.029  0.00  0.00    +0.008 C 
ATOM      7  C   UNL     1      -1.429  -6.124   4.401  0.00  0.00    +0.004 C 
ATOM      8  C   UNL     1      -2.997  -3.545   3.843  0.00  0.00    +0.034 C 
ATOM      9  C   UNL     1      -3.731  -3.258   4.459  0.00  0.00    +0.005 C 
ATOM     10  C   UNL     1      -1.727  -4.672   3.379  0.00  0.00    +0.005 C 
ATOM     11  C   UNL     1      -1.193  -5.546   3.566  0.00  0.00    +0.010 C 
ATOM     12  C   UNL     1      -1.041  -7.008   4.772  0.00  0.00    +0.027 C 
ATOM     13  C   UNL     1      -3.449  -4.653   5.446  0.00  0.00    +0.007 C 
ATOM     14  C   UNL     1      -2.274  -6.517   5.797  0.00  0.00    +0.036 C 
ATOM     15  C   UNL     1      -3.957  -3.812   5.260  0.00  0.00    +0.005 C 
ATOM     16  C   UNL     1      -1.562  -7.251   5.634  0.00  0.00    +0.011 C 
ATOM     17  C   UNL     1      -2.750  -2.978   3.005  0.00  0.00    +0.049 C 
ATOM     18  C   UNL     1      -4.269  -2.384   4.278  0.00  0.00    +0.038 C 
ATOM     19  C   UNL     1      -0.693  -6.417   3.789  0.00  0.00    +0.014 C 
ATOM     20  C   UNL     1      -3.274  -2.101   2.805  0.00  0.00    +0.152 C 
ATOM     21  C   UNL     1      -4.039  -1.801   3.445  0.00  0.00    +0.151 C 
ATOM     22  C   UNL     1      -3.564  -0.596   1.723  0.00  0.00    +0.247 C 
ATOM     23  C   UNL     1      -4.361  -0.285   2.391  0.00  0.00    +0.314 C 
ATOM     24  C   UNL     1      -3.296   0.019   0.814  0.00  0.00    +0.181 C 
ATOM     25  C   UNL     1      -3.865   0.971   0.596  0.00  0.00    +0.068 C 
ATOM     26  C   UNL     1      -4.695   1.295   1.292  0.00  0.00    +0.121 C 
ATOM     27  C   UNL     1      -5.205   2.135   1.109  0.00  0.00    +0.038 C 
ENDROOT
BRANCH  12  30
ATOM     28  O   UNL     1       0.533  -8.581   3.452  0.00  0.00    -0.457 OA
ATOM     29  O   UNL     1       2.171  -8.274   4.084  0.00  0.00    -0.246 OA
ATOM     30  C   UNL     1      -0.293  -7.537   4.371  0.00  0.00    -0.022 C 
ATOM     31  C   UNL     1      -0.379  -8.222   3.647  0.00  0.00    +0.264 C 
ATOM     32  C   UNL     1       0.672  -7.472   4.623  0.00  0.00    +0.094 C 
ATOM     33  C   UNL     1       1.183  -8.118   4.055  0.00  0.00    +0.332 C 
ENDBRANCH  12  30
BRANCH   4  34
ATOM     34  O   UNL     1      -2.930  -5.525   5.648  0.00  0.00    -0.388 OA
ATOM     35  H   UNL     1      -3.500  -5.760   5.582  0.00  0.00    +0.210 HD
ENDBRANCH   4  34
BRANCH   8  37
ATOM     36  O   UNL     1      -2.693  -3.752   2.151  0.00  0.00    -0.300 OA
ATOM     37  C   UNL     1      -2.363  -3.538   3.070  0.00  0.00    +0.230 C 
ENDBRANCH   8  37
BRANCH  22  38
ATOM     38  O   UNL     1      -2.829  -0.883   1.108  0.00  0.00    -0.359 OA
ATOM     39  H   UNL     1      -2.441  -1.335   1.278  0.00  0.00    +0.213 HD
ENDBRANCH  22  38
BRANCH  24  40
ATOM     40  O   UNL     1      -2.560  -0.278   0.205  0.00  0.00    -0.386 OA
ATOM     41  H   UNL     1      -1.994  -0.389   0.434  0.00  0.00    +0.210 HD
ENDBRANCH  24  40
TORSDOF 5
ENDMDL
MODEL 9
REMARK VINA RESULT:      -7.4     11.051     15.494
REMARK  Name = 16142
REMARK  7 active torsions:
REMARK  status: ('A' for Active; 'I' for Inactive)
REMARK    1  A    between atoms: O_1  and  C_10
REMARK    2  A    between atoms: O_7  and  C_30
REMARK    3  A    between atoms: O_8  and  C_34
REMARK    4  A    between atoms: C_13  and  C_25
REMARK    5  A    between atoms: C_14  and  C_28
REMARK    6  A    between atoms: C_18  and  C_29
REMARK    7  A    between atoms: C_37  and  C_38
REMARK                            x       y       z     vdW  Elec       q    Type
REMARK                         _______ _______ _______ _____ _____    ______ ____
ROOT
ATOM      1  O   UNL     1      -2.476  -1.233   3.567  0.00  0.00    -0.337 OA
ATOM      2  O   UNL     1      -4.622  -1.412   3.655  0.00  0.00    -0.341 OA
ATOM      3  O   UNL     1      -4.838   0.016   2.399  0.00  0.00    -0.343 OA
ATOM      4  C   UNL     1      -2.066  -5.260   7.102  0.00  0.00    +0.075 C 
ATOM      5  C   UNL     1      -2.652  -4.620   6.524  0.00  0.00    +0.025 C 
ATOM      6  C   UNL     1      -2.231  -3.931   5.935  0.00  0.00    +0.008 C 
ATOM      7  C   UNL     1      -1.028  -5.179   7.065  0.00  0.00    +0.004 C 
ATOM      8  C   UNL     1      -2.807  -3.324   5.386  0.00  0.00    +0.034 C 
ATOM      9  C   UNL     1      -3.802  -3.407   5.426  0.00  0.00    +0.005 C 
ATOM     10  C   UNL     1      -1.196  -3.832   5.881  0.00  0.00    +0.005 C 
ATOM     11  C   UNL     1      -0.590  -4.460   6.450  0.00  0.00    +0.010 C 
ATOM     12  C   UNL     1      -0.632  -5.892   7.701  0.00  0.00    +0.027 C 
ATOM     13  C   UNL     1      -3.648  -4.703   6.565  0.00  0.00    +0.007 C 
ATOM     14  C   UNL     1      -2.302  -6.022   7.761  0.00  0.00    +0.036 C 
ATOM     15  C   UNL     1      -4.223  -4.097   6.016  0.00  0.00    +0.005 C 
ATOM     16  C   UNL     1      -1.417  -6.413   8.131  0.00  0.00    +0.011 C 
ATOM     17  C   UNL     1      -2.354  -2.611   4.776  0.00  0.00    +0.049 C 
ATOM     18  C   UNL     1      -4.414  -2.783   4.860  0.00  0.00    +0.038 C 
ATOM     19  C   UNL     1      -0.032  -5.101   7.029  0.00  0.00    +0.014 C 
ATOM     20  C   UNL     1      -2.947  -1.976   4.202  0.00  0.00    +0.152 C 
ATOM     21  C   UNL     1      -3.984  -2.062   4.244  0.00  0.00    +0.151 C 
ATOM     22  C   UNL     1      -3.093  -0.571   2.968  0.00  0.00    +0.247 C 
ATOM     23  C   UNL     1      -4.174  -0.661   3.012  0.00  0.00    +0.314 C 
ATOM     24  C   UNL     1      -2.602   0.203   2.307  0.00  0.00    +0.181 C 
ATOM     25  C   UNL     1      -3.245   0.893   1.683  0.00  0.00    +0.068 C 
ATOM     26  C   UNL     1      -4.371   0.798   1.730  0.00  0.00    +0.121 C 
ATOM     27  C   UNL     1      -4.949   1.403   1.182  0.00  0.00    +0.038 C 
ENDROOT
BRANCH  12  30
ATOM     28  O   UNL     1       1.837  -5.933   8.475  0.00  0.00    -0.457 OA
ATOM     29  O   UNL     1       2.623  -7.222   7.528  0.00  0.00    -0.246 OA
ATOM     30  C   UNL     1       0.341  -6.052   7.872  0.00  0.00    -0.022 C 
ATOM     31  C   UNL     1       0.913  -5.555   8.525  0.00  0.00    +0.264 C 
ATOM     32  C   UNL     1       0.911  -6.737   7.419  0.00  0.00    +0.094 C 
ATOM     33  C   UNL     1       1.837  -6.663   7.792  0.00  0.00    +0.332 C 
ENDBRANCH  12  30
BRANCH   4  34
ATOM     34  O   UNL     1      -3.063  -5.337   7.137  0.00  0.00    -0.388 OA
ATOM     35  H   UNL     1      -3.379  -5.499   6.630  0.00  0.00    +0.210 HD
ENDBRANCH   4  34
BRANCH   8  37
ATOM     36  O   UNL     1      -1.590  -2.092   5.434  0.00  0.00    -0.300 OA
ATOM     37  C   UNL     1      -1.902  -2.990   5.122  0.00  0.00    +0.230 C 
ENDBRANCH   8  37
BRANCH  22  38
ATOM     38  O   UNL     1      -2.097  -0.488   2.927  0.00  0.00    -0.359 OA
ATOM     39  H   UNL     1      -1.739  -0.921   3.190  0.00  0.00    +0.213 HD
ENDBRANCH  22  38
BRANCH  24  40
ATOM     40  O   UNL     1      -1.605   0.278   2.274  0.00  0.00    -0.386 OA
ATOM     41  H   UNL     1      -1.255  -0.085   2.635  0.00  0.00    +0.210 HD
ENDBRANCH  24  40
TORSDOF 5
ENDMDL
