MODEL 1
REMARK VINA RESULT:      -4.5      0.000      0.000
REMARK  Name = 2244
REMARK  5 active torsions:
REMARK  status: ('A' for Active; 'I' for Inactive)
REMARK    1  A    between atoms: O_1  and  C_5
REMARK    2  A    between atoms: O_1  and  C_12
REMARK    3  A    between atoms: O_2  and  C_11
REMARK    4  A    between atoms: C_6  and  C_11
REMARK    5  A    between atoms: C_12  and  C_13
REMARK                            x       y       z     vdW  Elec       q    Type
REMARK                         _______ _______ _______ _____ _____    ______ ____
ROOT
ATOM      1  C   UNL     1       9.328   5.384  -9.936  0.00  0.00    +0.146 A 
ATOM      2  C   UNL     1       8.586   6.040 -10.074  0.00  0.00    +0.101 A 
ATOM      3  C   UNL     1       9.274   4.718  -9.192  0.00  0.00    +0.047 A 
ATOM      4  C   UNL     1       7.791   6.031  -9.468  0.00  0.00    +0.018 A 
ATOM      5  C   UNL     1       8.479   4.709  -8.586  0.00  0.00    +0.004 A 
ATOM      6  C   UNL     1       7.737   5.366  -8.724  0.00  0.00    +0.001 A 
ENDROOT
BRANCH   2   8
ATOM      7  O   UNL     1       8.287   6.472 -11.725  0.00  0.00    -0.245 OA
ATOM      8  C   UNL     1       8.640   6.706 -10.819  0.00  0.00    +0.340 C 
BRANCH   8   9
ATOM      9  O   UNL     1       9.047   7.605 -10.657  0.00  0.00    -0.477 OA
ATOM     10  H   UNL     1       9.403   7.867 -11.092  0.00  0.00    +0.295 HD
ENDBRANCH   8   9
ENDBRANCH   2   8
BRANCH   1  11
ATOM     11  O   UNL     1      10.123   5.393 -10.543  0.00  0.00    -0.425 OA
BRANCH  11  13
ATOM     12  O   UNL     1      11.625   5.048  -9.752  0.00  0.00    -0.251 OA
ATOM     13  C   UNL     1      10.889   4.773 -10.372  0.00  0.00    +0.309 C 
ATOM     14  C   UNL     1      10.920   3.880 -10.820  0.00  0.00    +0.136 C 
ENDBRANCH  11  13
ENDBRANCH   1  11
TORSDOF 4
ENDMDL
MODEL 2
REMARK VINA RESULT:      -4.2      0.919      2.752
REMARK  Name = 2244
REMARK  5 active torsions:
REMARK  status: ('A' for Active; 'I' for Inactive)
REMARK    1  A    between atoms: O_1  and  C_5
REMARK    2  A    between atoms: O_1  and  C_12
REMARK    3  A    between atoms: O_2  and  C_11
REMARK    4  A    between atoms: C_6  and  C_11
REMARK    5  A    between atoms: C_12  and  C_13
REMARK                            x       y       z     vdW  Elec       q    Type
REMARK                         _______ _______ _______ _____ _____    ______ ____
ROOT
ATOM      1  C   UNL     1       9.554   4.958  -9.778  0.00  0.00    +0.146 A 
ATOM      2  C   UNL     1      10.344   4.455  -9.428  0.00  0.00    +0.101 A 
ATOM      3  C   UNL     1       8.706   4.988  -9.250  0.00  0.00    +0.047 A 
ATOM      4  C   UNL     1      10.285   3.982  -8.548  0.00  0.00    +0.018 A 
ATOM      5  C   UNL     1       8.647   4.515  -8.371  0.00  0.00    +0.004 A 
ATOM      6  C   UNL     1       9.437   4.012  -8.020  0.00  0.00    +0.001 A 
ENDROOT
BRANCH   2   8
ATOM      7  O   UNL     1      11.325   3.716 -10.649  0.00  0.00    -0.245 OA
ATOM      8  C   UNL     1      11.193   4.425  -9.956  0.00  0.00    +0.340 C 
BRANCH   8   9
ATOM      9  O   UNL     1      11.908   5.103  -9.791  0.00  0.00    -0.477 OA
ATOM     10  H   UNL     1      12.262   5.064  -9.283  0.00  0.00    +0.295 HD
ENDBRANCH   8   9
ENDBRANCH   2   8
BRANCH   1  11
ATOM     11  O   UNL     1       9.613   5.431 -10.657  0.00  0.00    -0.425 OA
BRANCH  11  13
ATOM     12  O   UNL     1       9.156   7.099 -10.574  0.00  0.00    -0.251 OA
ATOM     13  C   UNL     1       8.969   6.164 -10.875  0.00  0.00    +0.309 C 
ATOM     14  C   UNL     1       8.138   5.962 -11.392  0.00  0.00    +0.136 C 
ENDBRANCH  11  13
ENDBRANCH   1  11
TORSDOF 4
ENDMDL
MODEL 3
REMARK VINA RESULT:      -4.0      1.430      2.783
REMARK  Name = 2244
REMARK  5 active torsions:
REMARK  status: ('A' for Active; 'I' for Inactive)
REMARK    1  A    between atoms: O_1  and  C_5
REMARK    2  A    between atoms: O_1  and  C_12
REMARK    3  A    between atoms: O_2  and  C_11
REMARK    4  A    between atoms: C_6  and  C_11
REMARK    5  A    between atoms: C_12  and  C_13
REMARK                            x       y       z     vdW  Elec       q    Type
REMARK                         _______ _______ _______ _____ _____    ______ ____
ROOT
ATOM      1  C   UNL     1       8.342   5.728  -9.486  0.00  0.00    +0.146 A 
ATOM      2  C   UNL     1       8.886   5.979 -10.286  0.00  0.00    +0.101 A 
ATOM      3  C   UNL     1       8.605   4.941  -8.929  0.00  0.00    +0.047 A 
ATOM      4  C   UNL     1       9.694   5.442 -10.529  0.00  0.00    +0.018 A 
ATOM      5  C   UNL     1       9.413   4.404  -9.172  0.00  0.00    +0.004 A 
ATOM      6  C   UNL     1       9.958   4.655  -9.972  0.00  0.00    +0.001 A 
ENDROOT
BRANCH   2   8
ATOM      7  O   UNL     1       7.958   6.656 -11.582  0.00  0.00    -0.245 OA
ATOM      8  C   UNL     1       8.623   6.767 -10.843  0.00  0.00    +0.340 C 
BRANCH   8   9
ATOM      9  O   UNL     1       9.024   7.664 -10.661  0.00  0.00    -0.477 OA
ATOM     10  H   UNL     1       8.658   8.144 -10.518  0.00  0.00    +0.295 HD
ENDBRANCH   8   9
ENDBRANCH   2   8
BRANCH   1  11
ATOM     11  O   UNL     1       7.534   6.265  -9.243  0.00  0.00    -0.425 OA
BRANCH  11  13
ATOM     12  O   UNL     1       7.398   6.408  -7.522  0.00  0.00    -0.251 OA
ATOM     13  C   UNL     1       7.042   6.072  -8.394  0.00  0.00    +0.309 C 
ATOM     14  C   UNL     1       6.195   5.542  -8.416  0.00  0.00    +0.136 C 
ENDBRANCH  11  13
ENDBRANCH   1  11
TORSDOF 4
ENDMDL
MODEL 4
REMARK VINA RESULT:      -3.9      3.623      4.684
REMARK  Name = 2244
REMARK  5 active torsions:
REMARK  status: ('A' for Active; 'I' for Inactive)
REMARK    1  A    between atoms: O_1  and  C_5
REMARK    2  A    between atoms: O_1  and  C_12
REMARK    3  A    between atoms: O_2  and  C_11
REMARK    4  A    between atoms: C_6  and  C_11
REMARK    5  A    between atoms: C_12  and  C_13
REMARK                            x       y       z     vdW  Elec       q    Type
REMARK                         _______ _______ _______ _____ _____    ______ ____
ROOT
ATOM      1  C   UNL     1       6.750   6.403  -6.953  0.00  0.00    +0.146 A 
ATOM      2  C   UNL     1       6.683   6.713  -6.004  0.00  0.00    +0.101 A 
ATOM      3  C   UNL     1       5.981   6.537  -7.578  0.00  0.00    +0.047 A 
ATOM      4  C   UNL     1       5.847   7.155  -5.680  0.00  0.00    +0.018 A 
ATOM      5  C   UNL     1       5.145   6.980  -7.254  0.00  0.00    +0.004 A 
ATOM      6  C   UNL     1       5.077   7.289  -6.306  0.00  0.00    +0.001 A 
ENDROOT
BRANCH   2   8
ATOM      7  O   UNL     1       7.538   5.724  -4.867  0.00  0.00    -0.245 OA
ATOM      8  C   UNL     1       7.452   6.579  -5.379  0.00  0.00    +0.340 C 
BRANCH   8   9
ATOM      9  O   UNL     1       8.135   7.301  -5.265  0.00  0.00    -0.477 OA
ATOM     10  H   UNL     1       8.120   7.666  -4.765  0.00  0.00    +0.295 HD
ENDBRANCH   8   9
ENDBRANCH   2   8
BRANCH   1  11
ATOM     11  O   UNL     1       7.586   5.961  -7.276  0.00  0.00    -0.425 OA
BRANCH  11  13
ATOM     12  O   UNL     1       7.862   6.221  -8.966  0.00  0.00    -0.251 OA
ATOM     13  C   UNL     1       7.635   5.607  -8.210  0.00  0.00    +0.309 C 
ATOM     14  C   UNL     1       7.458   4.639  -8.388  0.00  0.00    +0.136 C 
ENDBRANCH  11  13
ENDBRANCH   1  11
TORSDOF 4
ENDMDL
MODEL 5
REMARK VINA RESULT:      -3.8      1.592      2.400
REMARK  Name = 2244
REMARK  5 active torsions:
REMARK  status: ('A' for Active; 'I' for Inactive)
REMARK    1  A    between atoms: O_1  and  C_5
REMARK    2  A    between atoms: O_1  and  C_12
REMARK    3  A    between atoms: O_2  and  C_11
REMARK    4  A    between atoms: C_6  and  C_11
REMARK    5  A    between atoms: C_12  and  C_13
REMARK                            x       y       z     vdW  Elec       q    Type
REMARK                         _______ _______ _______ _____ _____    ______ ____
ROOT
ATOM      1  C   UNL     1       9.398   4.887  -9.403  0.00  0.00    +0.146 A 
ATOM      2  C   UNL     1       8.643   4.891  -8.747  0.00  0.00    +0.101 A 
ATOM      3  C   UNL     1       9.345   5.448 -10.229  0.00  0.00    +0.047 A 
ATOM      4  C   UNL     1       7.835   5.455  -8.917  0.00  0.00    +0.018 A 
ATOM      5  C   UNL     1       8.537   6.012 -10.400  0.00  0.00    +0.004 A 
ATOM      6  C   UNL     1       7.782   6.015  -9.744  0.00  0.00    +0.001 A 
ENDROOT
BRANCH   2   8
ATOM      7  O   UNL     1       8.370   3.386  -7.935  0.00  0.00    -0.245 OA
ATOM      8  C   UNL     1       8.697   4.331  -7.920  0.00  0.00    +0.340 C 
BRANCH   8   9
ATOM      9  O   UNL     1       9.076   4.715  -7.079  0.00  0.00    -0.477 OA
ATOM     10  H   UNL     1       9.242   5.313  -7.058  0.00  0.00    +0.295 HD
ENDBRANCH   8   9
ENDBRANCH   2   8
BRANCH   1  11
ATOM     11  O   UNL     1      10.206   4.323  -9.232  0.00  0.00    -0.425 OA
BRANCH  11  13
ATOM     12  O   UNL     1      11.648   5.097  -9.799  0.00  0.00    -0.251 OA
ATOM     13  C   UNL     1      10.980   4.355  -9.864  0.00  0.00    +0.309 C 
ATOM     14  C   UNL     1      11.087   3.646 -10.561  0.00  0.00    +0.136 C 
ENDBRANCH  11  13
ENDBRANCH   1  11
TORSDOF 4
ENDMDL
MODEL 6
REMARK VINA RESULT:      -3.8      4.282      5.322
REMARK  Name = 2244
REMARK  5 active torsions:
REMARK  status: ('A' for Active; 'I' for Inactive)
REMARK    1  A    between atoms: O_1  and  C_5
REMARK    2  A    between atoms: O_1  and  C_12
REMARK    3  A    between atoms: O_2  and  C_11
REMARK    4  A    between atoms: C_6  and  C_11
REMARK    5  A    between atoms: C_12  and  C_13
REMARK                            x       y       z     vdW  Elec       q    Type
REMARK                         _______ _______ _______ _____ _____    ______ ____
ROOT
ATOM      1  C   UNL     1       7.086   5.701  -5.594  0.00  0.00    +0.146 A 
ATOM      2  C   UNL     1       7.191   6.317  -4.814  0.00  0.00    +0.101 A 
ATOM      3  C   UNL     1       6.188   5.319  -5.812  0.00  0.00    +0.047 A 
ATOM      4  C   UNL     1       6.398   6.551  -4.251  0.00  0.00    +0.018 A 
ATOM      5  C   UNL     1       5.395   5.553  -5.249  0.00  0.00    +0.004 A 
ATOM      6  C   UNL     1       5.500   6.169  -4.469  0.00  0.00    +0.001 A 
ENDROOT
BRANCH   2   8
ATOM      7  O   UNL     1       8.697   6.218  -3.964  0.00  0.00    -0.245 OA
ATOM      8  C   UNL     1       8.089   6.699  -4.596  0.00  0.00    +0.340 C 
BRANCH   8   9
ATOM      9  O   UNL     1       8.379   7.562  -5.009  0.00  0.00    -0.477 OA
ATOM     10  H   UNL     1       7.993   8.046  -5.019  0.00  0.00    +0.295 HD
ENDBRANCH   8   9
ENDBRANCH   2   8
BRANCH   1  11
ATOM     11  O   UNL     1       7.878   5.466  -6.157  0.00  0.00    -0.425 OA
BRANCH  11  13
ATOM     12  O   UNL     1       7.571   6.092  -7.742  0.00  0.00    -0.251 OA
ATOM     13  C   UNL     1       7.768   5.319  -7.140  0.00  0.00    +0.309 C 
ATOM     14  C   UNL     1       7.855   4.398  -7.520  0.00  0.00    +0.136 C 
ENDBRANCH  11  13
ENDBRANCH   1  11
TORSDOF 4
ENDMDL
MODEL 7
REMARK VINA RESULT:      -3.6      1.831      2.866
REMARK  Name = 2244
REMARK  5 active torsions:
REMARK  status: ('A' for Active; 'I' for Inactive)
REMARK    1  A    between atoms: O_1  and  C_5
REMARK    2  A    between atoms: O_1  and  C_12
REMARK    3  A    between atoms: O_2  and  C_11
REMARK    4  A    between atoms: C_6  and  C_11
REMARK    5  A    between atoms: C_12  and  C_13
REMARK                            x       y       z     vdW  Elec       q    Type
REMARK                         _______ _______ _______ _____ _____    ______ ____
ROOT
ATOM      1  C   UNL     1       9.630   4.651  -9.335  0.00  0.00    +0.146 A 
ATOM      2  C   UNL     1      10.220   4.922 -10.096  0.00  0.00    +0.101 A 
ATOM      3  C   UNL     1       8.700   5.012  -9.271  0.00  0.00    +0.047 A 
ATOM      4  C   UNL     1       9.879   5.552 -10.793  0.00  0.00    +0.018 A 
ATOM      5  C   UNL     1       8.359   5.643  -9.969  0.00  0.00    +0.004 A 
ATOM      6  C   UNL     1       8.949   5.913 -10.729  0.00  0.00    +0.001 A 
ENDROOT
BRANCH   2   8
ATOM      7  O   UNL     1      11.338   3.758 -10.725  0.00  0.00    -0.245 OA
ATOM      8  C   UNL     1      11.151   4.561 -10.160  0.00  0.00    +0.340 C 
BRANCH   8   9
ATOM      9  O   UNL     1      11.894   5.003  -9.658  0.00  0.00    -0.477 OA
ATOM     10  H   UNL     1      12.468   4.771  -9.685  0.00  0.00    +0.295 HD
ENDBRANCH   8   9
ENDBRANCH   2   8
BRANCH   1  11
ATOM     11  O   UNL     1       9.971   4.021  -8.638  0.00  0.00    -0.425 OA
BRANCH  11  13
ATOM     12  O   UNL     1       9.124   4.211  -7.139  0.00  0.00    -0.251 OA
ATOM     13  C   UNL     1       9.349   3.660  -7.943  0.00  0.00    +0.309 C 
ATOM     14  C   UNL     1       8.951   2.749  -8.052  0.00  0.00    +0.136 C 
ENDBRANCH  11  13
ENDBRANCH   1  11
TORSDOF 4
ENDMDL
MODEL 8
REMARK VINA RESULT:      -3.5      1.338      3.078
REMARK  Name = 2244
REMARK  5 active torsions:
REMARK  status: ('A' for Active; 'I' for Inactive)
REMARK    1  A    between atoms: O_1  and  C_5
REMARK    2  A    between atoms: O_1  and  C_12
REMARK    3  A    between atoms: O_2  and  C_11
REMARK    4  A    between atoms: C_6  and  C_11
REMARK    5  A    between atoms: C_12  and  C_13
REMARK                            x       y       z     vdW  Elec       q    Type
REMARK                         _______ _______ _______ _____ _____    ______ ____
ROOT
ATOM      1  C   UNL     1       9.425   4.677 -10.302  0.00  0.00    +0.146 A 
ATOM      2  C   UNL     1      10.352   4.357 -10.496  0.00  0.00    +0.101 A 
ATOM      3  C   UNL     1       8.646   4.064 -10.436  0.00  0.00    +0.047 A 
ATOM      4  C   UNL     1      10.500   3.424 -10.824  0.00  0.00    +0.018 A 
ATOM      5  C   UNL     1       8.794   3.132 -10.764  0.00  0.00    +0.004 A 
ATOM      6  C   UNL     1       9.722   2.811 -10.958  0.00  0.00    +0.001 A 
ENDROOT
BRANCH   2   8
ATOM      7  O   UNL     1      11.349   5.660 -11.052  0.00  0.00    -0.245 OA
ATOM      8  C   UNL     1      11.131   4.970 -10.362  0.00  0.00    +0.340 C 
BRANCH   8   9
ATOM      9  O   UNL     1      11.692   4.892  -9.537  0.00  0.00    -0.477 OA
ATOM     10  H   UNL     1      12.177   4.507  -9.528  0.00  0.00    +0.295 HD
ENDBRANCH   8   9
ENDBRANCH   2   8
BRANCH   1  11
ATOM     11  O   UNL     1       9.276   5.610  -9.974  0.00  0.00    -0.425 OA
BRANCH  11  13
ATOM     12  O   UNL     1       8.073   5.714  -8.732  0.00  0.00    -0.251 OA
ATOM     13  C   UNL     1       8.367   5.895  -9.671  0.00  0.00    +0.309 C 
ATOM     14  C   UNL     1       7.751   6.360 -10.306  0.00  0.00    +0.136 C 
ENDBRANCH  11  13
ENDBRANCH   1  11
TORSDOF 4
ENDMDL
MODEL 9
REMARK VINA RESULT:      -3.5      3.954      5.173
REMARK  Name = 2244
REMARK  5 active torsions:
REMARK  status: ('A' for Active; 'I' for Inactive)
REMARK    1  A    between atoms: O_1  and  C_5
REMARK    2  A    between atoms: O_1  and  C_12
REMARK    3  A    between atoms: O_2  and  C_11
REMARK    4  A    between atoms: C_6  and  C_11
REMARK    5  A    between atoms: C_12  and  C_13
REMARK                            x       y       z     vdW  Elec       q    Type
REMARK                         _______ _______ _______ _____ _____    ______ ____
ROOT
ATOM      1  C   UNL     1       7.061   6.180  -5.968  0.00  0.00    +0.146 A 
ATOM      2  C   UNL     1       7.100   5.737  -6.864  0.00  0.00    +0.101 A 
ATOM      3  C   UNL     1       6.350   6.856  -5.775  0.00  0.00    +0.047 A 
ATOM      4  C   UNL     1       6.427   5.970  -7.566  0.00  0.00    +0.018 A 
ATOM      5  C   UNL     1       5.678   7.089  -6.478  0.00  0.00    +0.004 A 
ATOM      6  C   UNL     1       5.716   6.646  -7.373  0.00  0.00    +0.001 A 
ENDROOT
BRANCH   2   8
ATOM      7  O   UNL     1       7.689   4.111  -6.769  0.00  0.00    -0.245 OA
ATOM      8  C   UNL     1       7.811   5.061  -7.057  0.00  0.00    +0.340 C 
BRANCH   8   9
ATOM      9  O   UNL     1       8.644   5.334  -7.538  0.00  0.00    -0.477 OA
ATOM     10  H   UNL     1       8.693   5.243  -8.149  0.00  0.00    +0.295 HD
ENDBRANCH   8   9
ENDBRANCH   2   8
BRANCH   1  11
ATOM     11  O   UNL     1       7.734   5.947  -5.266  0.00  0.00    -0.425 OA
BRANCH  11  13
ATOM     12  O   UNL     1       8.369   7.374  -4.517  0.00  0.00    -0.251 OA
ATOM     13  C   UNL     1       7.837   6.530  -4.460  0.00  0.00    +0.309 C 
ATOM     14  C   UNL     1       7.408   6.267  -3.595  0.00  0.00    +0.136 C 
ENDBRANCH  11  13
ENDBRANCH   1  11
TORSDOF 4
ENDMDL
