MODEL 1
REMARK VINA RESULT:       0.0      0.000      0.000
REMARK  Name = 962
REMARK  0 active torsions:
REMARK  status: ('A' for Active; 'I' for Inactive)
REMARK                            x       y       z     vdW  Elec       q    Type
REMARK                         _______ _______ _______ _____ _____    ______ ____
ROOT
ATOM      1  O   HOH     1      -9.489   4.304  -3.749  0.00  0.00    -0.410 OA
ATOM      2  H   HOH     0      -9.586   4.610  -3.219  0.00  0.00    +0.205 HD
ATOM      3  H   HOH     0      -8.946   4.358  -4.044  0.00  0.00    +0.205 HD
ENDROOT
TORSDOF 0
ENDMDL
MODEL 2
REMARK VINA RESULT:       0.0      2.807      2.807
REMARK  Name = 962
REMARK  0 active torsions:
REMARK  status: ('A' for Active; 'I' for Inactive)
REMARK                            x       y       z     vdW  Elec       q    Type
REMARK                         _______ _______ _______ _____ _____    ______ ____
ROOT
ATOM      1  O   HOH     1      -7.149   5.797  -4.164  0.00  0.00    -0.410 OA
ATOM      2  H   HOH     0      -7.246   6.104  -3.633  0.00  0.00    +0.205 HD
ATOM      3  H   HOH     0      -6.606   5.851  -4.459  0.00  0.00    +0.205 HD
ENDROOT
TORSDOF 0
ENDMDL
MODEL 3
REMARK VINA RESULT:       0.0      4.694      4.694
REMARK  Name = 962
REMARK  0 active torsions:
REMARK  status: ('A' for Active; 'I' for Inactive)
REMARK                            x       y       z     vdW  Elec       q    Type
REMARK                         _______ _______ _______ _____ _____    ______ ____
ROOT
ATOM      1  O   HOH     1      -6.086   6.532  -6.091  0.00  0.00    -0.410 OA
ATOM      2  H   HOH     0      -6.183   6.839  -5.561  0.00  0.00    +0.205 HD
ATOM      3  H   HOH     0      -5.544   6.586  -6.386  0.00  0.00    +0.205 HD
ENDROOT
TORSDOF 0
ENDMDL
MODEL 4
REMARK VINA RESULT:       0.0      6.022      6.022
REMARK  Name = 962
REMARK  0 active torsions:
REMARK  status: ('A' for Active; 'I' for Inactive)
REMARK                            x       y       z     vdW  Elec       q    Type
REMARK                         _______ _______ _______ _____ _____    ______ ____
ROOT
ATOM      1  O   HOH     1      -5.321   3.918  -8.078  0.00  0.00    -0.410 OA
ATOM      2  H   HOH     0      -5.417   4.225  -7.548  0.00  0.00    +0.205 HD
ATOM      3  H   HOH     0      -4.778   3.972  -8.373  0.00  0.00    +0.205 HD
ENDROOT
TORSDOF 0
ENDMDL
MODEL 5
REMARK VINA RESULT:       0.0      7.939      7.939
REMARK  Name = 962
REMARK  0 active torsions:
REMARK  status: ('A' for Active; 'I' for Inactive)
REMARK                            x       y       z     vdW  Elec       q    Type
REMARK                         _______ _______ _______ _____ _____    ______ ____
ROOT
ATOM      1  O   HOH     1      -2.924   4.446  -8.210  0.00  0.00    -0.410 OA
ATOM      2  H   HOH     0      -3.021   4.752  -7.680  0.00  0.00    +0.205 HD
ATOM      3  H   HOH     0      -2.382   4.500  -8.505  0.00  0.00    +0.205 HD
ENDROOT
TORSDOF 0
ENDMDL
MODEL 6
REMARK VINA RESULT:       0.0      6.294      6.294
REMARK  Name = 962
REMARK  0 active torsions:
REMARK  status: ('A' for Active; 'I' for Inactive)
REMARK                            x       y       z     vdW  Elec       q    Type
REMARK                         _______ _______ _______ _____ _____    ______ ____
ROOT
ATOM      1  O   HOH     1      -7.330   1.298  -8.840  0.00  0.00    -0.410 OA
ATOM      2  H   HOH     0      -7.427   1.604  -8.309  0.00  0.00    +0.205 HD
ATOM      3  H   HOH     0      -6.788   1.352  -9.135  0.00  0.00    +0.205 HD
ENDROOT
TORSDOF 0
ENDMDL
MODEL 7
REMARK VINA RESULT:       0.0      7.622      7.622
REMARK  Name = 962
REMARK  0 active torsions:
REMARK  status: ('A' for Active; 'I' for Inactive)
REMARK                            x       y       z     vdW  Elec       q    Type
REMARK                         _______ _______ _______ _____ _____    ______ ____
ROOT
ATOM      1  O   HOH     1      -7.342  -1.973  -7.502  0.00  0.00    -0.410 OA
ATOM      2  H   HOH     0      -7.439  -1.667  -6.972  0.00  0.00    +0.205 HD
ATOM      3  H   HOH     0      -6.799  -1.919  -7.797  0.00  0.00    +0.205 HD
ENDROOT
TORSDOF 0
ENDMDL
MODEL 8
REMARK VINA RESULT:       0.0      6.812      6.812
REMARK  Name = 962
REMARK  0 active torsions:
REMARK  status: ('A' for Active; 'I' for Inactive)
REMARK                            x       y       z     vdW  Elec       q    Type
REMARK                         _______ _______ _______ _____ _____    ______ ____
ROOT
ATOM      1  O   HOH     1      -5.744  -1.002  -5.805  0.00  0.00    -0.410 OA
ATOM      2  H   HOH     0      -5.841  -0.695  -5.275  0.00  0.00    +0.205 HD
ATOM      3  H   HOH     0      -5.201  -0.948  -6.100  0.00  0.00    +0.205 HD
ENDROOT
TORSDOF 0
ENDMDL
MODEL 9
REMARK VINA RESULT:       0.0      4.889      4.889
REMARK  Name = 962
REMARK  0 active torsions:
REMARK  status: ('A' for Active; 'I' for Inactive)
REMARK                            x       y       z     vdW  Elec       q    Type
REMARK                         _______ _______ _______ _____ _____    ______ ____
ROOT
ATOM      1  O   HOH     1      -8.008   0.145  -5.848  0.00  0.00    -0.410 OA
ATOM      2  H   HOH     0      -8.104   0.451  -5.318  0.00  0.00    +0.205 HD
ATOM      3  H   HOH     0      -7.465   0.199  -6.143  0.00  0.00    +0.205 HD
ENDROOT
TORSDOF 0
ENDMDL
