MODEL 1
REMARK VINA RESULT:      -4.5      0.000      0.000
REMARK  Name = 2244
REMARK  5 active torsions:
REMARK  status: ('A' for Active; 'I' for Inactive)
REMARK    1  A    between atoms: O_1  and  C_5
REMARK    2  A    between atoms: O_1  and  C_12
REMARK    3  A    between atoms: O_2  and  C_11
REMARK    4  A    between atoms: C_6  and  C_11
REMARK    5  A    between atoms: C_12  and  C_13
REMARK                            x       y       z     vdW  Elec       q    Type
REMARK                         _______ _______ _______ _____ _____    ______ ____
ROOT
ATOM      1  C   UNL     1       9.326   5.386  -9.937  0.00  0.00    +0.146 A 
ATOM      2  C   UNL     1       8.584   6.041 -10.075  0.00  0.00    +0.101 A 
ATOM      3  C   UNL     1       9.272   4.720  -9.193  0.00  0.00    +0.047 A 
ATOM      4  C   UNL     1       7.788   6.030  -9.470  0.00  0.00    +0.018 A 
ATOM      5  C   UNL     1       8.476   4.708  -8.588  0.00  0.00    +0.004 A 
ATOM      6  C   UNL     1       7.734   5.364  -8.727  0.00  0.00    +0.001 A 
ENDROOT
BRANCH   2   8
ATOM      7  O   UNL     1       8.284   6.476 -11.725  0.00  0.00    -0.245 OA
ATOM      8  C   UNL     1       8.637   6.708 -10.819  0.00  0.00    +0.340 C 
BRANCH   8   9
ATOM      9  O   UNL     1       9.045   7.607 -10.656  0.00  0.00    -0.477 OA
ATOM     10  H   UNL     1       9.383   7.706 -10.146  0.00  0.00    +0.295 HD
ENDBRANCH   8   9
ENDBRANCH   2   8
BRANCH   1  11
ATOM     11  O   UNL     1      10.122   5.397 -10.542  0.00  0.00    -0.425 OA
BRANCH  11  13
ATOM     12  O   UNL     1      11.624   5.047  -9.753  0.00  0.00    -0.251 OA
ATOM     13  C   UNL     1      10.887   4.776 -10.373  0.00  0.00    +0.309 C 
ATOM     14  C   UNL     1      10.916   3.884 -10.823  0.00  0.00    +0.136 C 
ENDBRANCH  11  13
ENDBRANCH   1  11
TORSDOF 4
ENDMDL
MODEL 2
REMARK VINA RESULT:      -4.2      0.919      2.756
REMARK  Name = 2244
REMARK  5 active torsions:
REMARK  status: ('A' for Active; 'I' for Inactive)
REMARK    1  A    between atoms: O_1  and  C_5
REMARK    2  A    between atoms: O_1  and  C_12
REMARK    3  A    between atoms: O_2  and  C_11
REMARK    4  A    between atoms: C_6  and  C_11
REMARK    5  A    between atoms: C_12  and  C_13
REMARK                            x       y       z     vdW  Elec       q    Type
REMARK                         _______ _______ _______ _____ _____    ______ ____
ROOT
ATOM      1  C   UNL     1       9.550   4.968  -9.761  0.00  0.00    +0.146 A 
ATOM      2  C   UNL     1      10.337   4.453  -9.421  0.00  0.00    +0.101 A 
ATOM      3  C   UNL     1       8.703   4.996  -9.230  0.00  0.00    +0.047 A 
ATOM      4  C   UNL     1      10.277   3.967  -8.549  0.00  0.00    +0.018 A 
ATOM      5  C   UNL     1       8.643   4.509  -8.359  0.00  0.00    +0.004 A 
ATOM      6  C   UNL     1       9.430   3.995  -8.018  0.00  0.00    +0.001 A 
ENDROOT
BRANCH   2   8
ATOM      7  O   UNL     1      11.311   3.726 -10.654  0.00  0.00    -0.245 OA
ATOM      8  C   UNL     1      11.184   4.426  -9.952  0.00  0.00    +0.340 C 
BRANCH   8   9
ATOM      9  O   UNL     1      11.904   5.098  -9.780  0.00  0.00    -0.477 OA
ATOM     10  H   UNL     1      12.500   4.927  -9.803  0.00  0.00    +0.295 HD
ENDBRANCH   8   9
ENDBRANCH   2   8
BRANCH   1  11
ATOM     11  O   UNL     1       9.610   5.454 -10.633  0.00  0.00    -0.425 OA
BRANCH  11  13
ATOM     12  O   UNL     1       9.101   7.108 -10.556  0.00  0.00    -0.251 OA
ATOM     13  C   UNL     1       8.944   6.167 -10.855  0.00  0.00    +0.309 C 
ATOM     14  C   UNL     1       8.122   5.938 -11.375  0.00  0.00    +0.136 C 
ENDBRANCH  11  13
ENDBRANCH   1  11
TORSDOF 4
ENDMDL
MODEL 3
REMARK VINA RESULT:      -4.0      1.432      2.774
REMARK  Name = 2244
REMARK  5 active torsions:
REMARK  status: ('A' for Active; 'I' for Inactive)
REMARK    1  A    between atoms: O_1  and  C_5
REMARK    2  A    between atoms: O_1  and  C_12
REMARK    3  A    between atoms: O_2  and  C_11
REMARK    4  A    between atoms: C_6  and  C_11
REMARK    5  A    between atoms: C_12  and  C_13
REMARK                            x       y       z     vdW  Elec       q    Type
REMARK                         _______ _______ _______ _____ _____    ______ ____
ROOT
ATOM      1  C   UNL     1       8.357   5.726  -9.490  0.00  0.00    +0.146 A 
ATOM      2  C   UNL     1       8.889   5.982 -10.297  0.00  0.00    +0.101 A 
ATOM      3  C   UNL     1       8.627   4.933  -8.944  0.00  0.00    +0.047 A 
ATOM      4  C   UNL     1       9.691   5.445 -10.558  0.00  0.00    +0.018 A 
ATOM      5  C   UNL     1       9.429   4.396  -9.205  0.00  0.00    +0.004 A 
ATOM      6  C   UNL     1       9.961   4.652 -10.012  0.00  0.00    +0.001 A 
ENDROOT
BRANCH   2   8
ATOM      7  O   UNL     1       7.942   6.671 -11.574  0.00  0.00    -0.245 OA
ATOM      8  C   UNL     1       8.618   6.774 -10.844  0.00  0.00    +0.340 C 
BRANCH   8   9
ATOM      9  O   UNL     1       9.023   7.670 -10.660  0.00  0.00    -0.477 OA
ATOM     10  H   UNL     1       9.443   7.733 -10.208  0.00  0.00    +0.295 HD
ENDBRANCH   8   9
ENDBRANCH   2   8
BRANCH   1  11
ATOM     11  O   UNL     1       7.554   6.262  -9.229  0.00  0.00    -0.425 OA
BRANCH  11  13
ATOM     12  O   UNL     1       7.422   6.381  -7.506  0.00  0.00    -0.251 OA
ATOM     13  C   UNL     1       7.067   6.053  -8.382  0.00  0.00    +0.309 C 
ATOM     14  C   UNL     1       6.224   5.516  -8.409  0.00  0.00    +0.136 C 
ENDBRANCH  11  13
ENDBRANCH   1  11
TORSDOF 4
ENDMDL
MODEL 4
REMARK VINA RESULT:      -3.9      3.621      4.680
REMARK  Name = 2244
REMARK  5 active torsions:
REMARK  status: ('A' for Active; 'I' for Inactive)
REMARK    1  A    between atoms: O_1  and  C_5
REMARK    2  A    between atoms: O_1  and  C_12
REMARK    3  A    between atoms: O_2  and  C_11
REMARK    4  A    between atoms: C_6  and  C_11
REMARK    5  A    between atoms: C_12  and  C_13
REMARK                            x       y       z     vdW  Elec       q    Type
REMARK                         _______ _______ _______ _____ _____    ______ ____
ROOT
ATOM      1  C   UNL     1       6.751   6.400  -6.955  0.00  0.00    +0.146 A 
ATOM      2  C   UNL     1       6.683   6.711  -6.007  0.00  0.00    +0.101 A 
ATOM      3  C   UNL     1       5.983   6.532  -7.581  0.00  0.00    +0.047 A 
ATOM      4  C   UNL     1       5.846   7.154  -5.685  0.00  0.00    +0.018 A 
ATOM      5  C   UNL     1       5.147   6.976  -7.260  0.00  0.00    +0.004 A 
ATOM      6  C   UNL     1       5.078   7.287  -6.312  0.00  0.00    +0.001 A 
ENDROOT
BRANCH   2   8
ATOM      7  O   UNL     1       7.536   5.724  -4.868  0.00  0.00    -0.245 OA
ATOM      8  C   UNL     1       7.451   6.578  -5.381  0.00  0.00    +0.340 C 
BRANCH   8   9
ATOM      9  O   UNL     1       8.134   7.300  -5.267  0.00  0.00    -0.477 OA
ATOM     10  H   UNL     1       7.981   7.891  -5.374  0.00  0.00    +0.295 HD
ENDBRANCH   8   9
ENDBRANCH   2   8
BRANCH   1  11
ATOM     11  O   UNL     1       7.588   5.956  -7.276  0.00  0.00    -0.425 OA
BRANCH  11  13
ATOM     12  O   UNL     1       7.865   6.221  -8.965  0.00  0.00    -0.251 OA
ATOM     13  C   UNL     1       7.640   5.604  -8.211  0.00  0.00    +0.309 C 
ATOM     14  C   UNL     1       7.466   4.636  -8.391  0.00  0.00    +0.136 C 
ENDBRANCH  11  13
ENDBRANCH   1  11
TORSDOF 4
ENDMDL
MODEL 5
REMARK VINA RESULT:      -3.9      6.368      7.516
REMARK  Name = 2244
REMARK  5 active torsions:
REMARK  status: ('A' for Active; 'I' for Inactive)
REMARK    1  A    between atoms: O_1  and  C_5
REMARK    2  A    between atoms: O_1  and  C_12
REMARK    3  A    between atoms: O_2  and  C_11
REMARK    4  A    between atoms: C_6  and  C_11
REMARK    5  A    between atoms: C_12  and  C_13
REMARK                            x       y       z     vdW  Elec       q    Type
REMARK                         _______ _______ _______ _____ _____    ______ ____
ROOT
ATOM      1  C   UNL     1       6.997   6.617  -3.300  0.00  0.00    +0.146 A 
ATOM      2  C   UNL     1       7.429   6.430  -4.182  0.00  0.00    +0.101 A 
ATOM      3  C   UNL     1       6.071   6.287  -3.116  0.00  0.00    +0.047 A 
ATOM      4  C   UNL     1       6.935   5.913  -4.881  0.00  0.00    +0.018 A 
ATOM      5  C   UNL     1       5.577   5.770  -3.815  0.00  0.00    +0.004 A 
ATOM      6  C   UNL     1       6.009   5.583  -4.697  0.00  0.00    +0.001 A 
ENDROOT
BRANCH   2   8
ATOM      7  O   UNL     1       9.145   6.227  -4.064  0.00  0.00    -0.245 OA
ATOM      8  C   UNL     1       8.355   6.760  -4.366  0.00  0.00    +0.340 C 
BRANCH   8   9
ATOM      9  O   UNL     1       8.491   7.624  -4.851  0.00  0.00    -0.477 OA
ATOM     10  H   UNL     1       8.996   7.965  -4.740  0.00  0.00    +0.295 HD
ENDBRANCH   8   9
ENDBRANCH   2   8
BRANCH   1  11
ATOM     11  O   UNL     1       7.491   7.135  -2.601  0.00  0.00    -0.425 OA
BRANCH  11  13
ATOM     12  O   UNL     1       7.320   6.323  -1.081  0.00  0.00    -0.251 OA
ATOM     13  C   UNL     1       7.171   7.128  -1.654  0.00  0.00    +0.309 C 
ATOM     14  C   UNL     1       6.700   7.928  -1.280  0.00  0.00    +0.136 C 
ENDBRANCH  11  13
ENDBRANCH   1  11
TORSDOF 4
ENDMDL
MODEL 6
REMARK VINA RESULT:      -3.9      1.150      3.285
REMARK  Name = 2244
REMARK  5 active torsions:
REMARK  status: ('A' for Active; 'I' for Inactive)
REMARK    1  A    between atoms: O_1  and  C_5
REMARK    2  A    between atoms: O_1  and  C_12
REMARK    3  A    between atoms: O_2  and  C_11
REMARK    4  A    between atoms: C_6  and  C_11
REMARK    5  A    between atoms: C_12  and  C_13
REMARK                            x       y       z     vdW  Elec       q    Type
REMARK                         _______ _______ _______ _____ _____    ______ ____
ROOT
ATOM      1  C   UNL     1       9.645   4.824 -10.616  0.00  0.00    +0.146 A 
ATOM      2  C   UNL     1      10.448   4.287 -10.362  0.00  0.00    +0.101 A 
ATOM      3  C   UNL     1       9.003   4.473 -11.298  0.00  0.00    +0.047 A 
ATOM      4  C   UNL     1      10.610   3.397 -10.789  0.00  0.00    +0.018 A 
ATOM      5  C   UNL     1       9.165   3.583 -11.725  0.00  0.00    +0.004 A 
ATOM      6  C   UNL     1       9.969   3.045 -11.471  0.00  0.00    +0.001 A 
ENDROOT
BRANCH   2   8
ATOM      7  O   UNL     1      11.888   5.167  -9.971  0.00  0.00    -0.245 OA
ATOM      8  C   UNL     1      11.090   4.638  -9.680  0.00  0.00    +0.340 C 
BRANCH   8   9
ATOM      9  O   UNL     1      10.934   4.462  -8.709  0.00  0.00    -0.477 OA
ATOM     10  H   UNL     1      10.482   4.761  -8.408  0.00  0.00    +0.295 HD
ENDBRANCH   8   9
ENDBRANCH   2   8
BRANCH   1  11
ATOM     11  O   UNL     1       9.483   5.714 -10.189  0.00  0.00    -0.425 OA
BRANCH  11  13
ATOM     12  O   UNL     1       9.156   6.952 -11.356  0.00  0.00    -0.251 OA
ATOM     13  C   UNL     1       8.847   6.362 -10.609  0.00  0.00    +0.309 C 
ATOM     14  C   UNL     1       7.904   6.421 -10.282  0.00  0.00    +0.136 C 
ENDBRANCH  11  13
ENDBRANCH   1  11
TORSDOF 4
ENDMDL
MODEL 7
REMARK VINA RESULT:      -3.8      1.602      2.412
REMARK  Name = 2244
REMARK  5 active torsions:
REMARK  status: ('A' for Active; 'I' for Inactive)
REMARK    1  A    between atoms: O_1  and  C_5
REMARK    2  A    between atoms: O_1  and  C_12
REMARK    3  A    between atoms: O_2  and  C_11
REMARK    4  A    between atoms: C_6  and  C_11
REMARK    5  A    between atoms: C_12  and  C_13
REMARK                            x       y       z     vdW  Elec       q    Type
REMARK                         _______ _______ _______ _____ _____    ______ ____
ROOT
ATOM      1  C   UNL     1       9.409   4.868  -9.392  0.00  0.00    +0.146 A 
ATOM      2  C   UNL     1       8.656   4.866  -8.734  0.00  0.00    +0.101 A 
ATOM      3  C   UNL     1       9.348   5.425 -10.221  0.00  0.00    +0.047 A 
ATOM      4  C   UNL     1       7.843   5.422  -8.904  0.00  0.00    +0.018 A 
ATOM      5  C   UNL     1       8.535   5.981 -10.391  0.00  0.00    +0.004 A 
ATOM      6  C   UNL     1       7.782   5.980  -9.733  0.00  0.00    +0.001 A 
ENDROOT
BRANCH   2   8
ATOM      7  O   UNL     1       8.396   3.362  -7.916  0.00  0.00    -0.245 OA
ATOM      8  C   UNL     1       8.717   4.309  -7.906  0.00  0.00    +0.340 C 
BRANCH   8   9
ATOM      9  O   UNL     1       9.099   4.699  -7.068  0.00  0.00    -0.477 OA
ATOM     10  H   UNL     1       9.711   4.684  -6.970  0.00  0.00    +0.295 HD
ENDBRANCH   8   9
ENDBRANCH   2   8
BRANCH   1  11
ATOM     11  O   UNL     1      10.223   4.312  -9.222  0.00  0.00    -0.425 OA
BRANCH  11  13
ATOM     12  O   UNL     1      11.657   5.090  -9.802  0.00  0.00    -0.251 OA
ATOM     13  C   UNL     1      10.993   4.345  -9.859  0.00  0.00    +0.309 C 
ATOM     14  C   UNL     1      11.099   3.633 -10.553  0.00  0.00    +0.136 C 
ENDBRANCH  11  13
ENDBRANCH   1  11
TORSDOF 4
ENDMDL
MODEL 8
REMARK VINA RESULT:      -3.7      5.959      7.098
REMARK  Name = 2244
REMARK  5 active torsions:
REMARK  status: ('A' for Active; 'I' for Inactive)
REMARK    1  A    between atoms: O_1  and  C_5
REMARK    2  A    between atoms: O_1  and  C_12
REMARK    3  A    between atoms: O_2  and  C_11
REMARK    4  A    between atoms: C_6  and  C_11
REMARK    5  A    between atoms: C_12  and  C_13
REMARK                            x       y       z     vdW  Elec       q    Type
REMARK                         _______ _______ _______ _____ _____    ______ ____
ROOT
ATOM      1  C   UNL     1       7.116   6.248  -3.711  0.00  0.00    +0.146 A 
ATOM      2  C   UNL     1       7.774   6.617  -4.367  0.00  0.00    +0.101 A 
ATOM      3  C   UNL     1       6.193   6.005  -4.011  0.00  0.00    +0.047 A 
ATOM      4  C   UNL     1       7.510   6.743  -5.323  0.00  0.00    +0.018 A 
ATOM      5  C   UNL     1       5.929   6.132  -4.967  0.00  0.00    +0.004 A 
ATOM      6  C   UNL     1       6.587   6.501  -5.623  0.00  0.00    +0.001 A 
ENDROOT
BRANCH   2   8
ATOM      7  O   UNL     1       8.868   7.752  -3.650  0.00  0.00    -0.245 OA
ATOM      8  C   UNL     1       8.697   6.859  -4.068  0.00  0.00    +0.340 C 
BRANCH   8   9
ATOM      9  O   UNL     1       9.448   6.210  -4.185  0.00  0.00    -0.477 OA
ATOM     10  H   UNL     1       9.576   5.982  -4.747  0.00  0.00    +0.295 HD
ENDBRANCH   8   9
ENDBRANCH   2   8
BRANCH   1  11
ATOM     11  O   UNL     1       7.380   6.121  -2.755  0.00  0.00    -0.425 OA
BRANCH  11  13
ATOM     12  O   UNL     1       7.443   4.422  -2.424  0.00  0.00    -0.251 OA
ATOM     13  C   UNL     1       7.052   5.326  -2.247  0.00  0.00    +0.309 C 
ATOM     14  C   UNL     1       6.332   5.433  -1.561  0.00  0.00    +0.136 C 
ENDBRANCH  11  13
ENDBRANCH   1  11
TORSDOF 4
ENDMDL
MODEL 9
REMARK VINA RESULT:      -3.7      1.796      2.778
REMARK  Name = 2244
REMARK  5 active torsions:
REMARK  status: ('A' for Active; 'I' for Inactive)
REMARK    1  A    between atoms: O_1  and  C_5
REMARK    2  A    between atoms: O_1  and  C_12
REMARK    3  A    between atoms: O_2  and  C_11
REMARK    4  A    between atoms: C_6  and  C_11
REMARK    5  A    between atoms: C_12  and  C_13
REMARK                            x       y       z     vdW  Elec       q    Type
REMARK                         _______ _______ _______ _____ _____    ______ ____
ROOT
ATOM      1  C   UNL     1       9.795   4.193  -9.211  0.00  0.00    +0.146 A 
ATOM      2  C   UNL     1      10.203   4.733  -9.947  0.00  0.00    +0.101 A 
ATOM      3  C   UNL     1       8.851   4.365  -8.929  0.00  0.00    +0.047 A 
ATOM      4  C   UNL     1       9.667   5.445 -10.401  0.00  0.00    +0.018 A 
ATOM      5  C   UNL     1       8.315   5.076  -9.382  0.00  0.00    +0.004 A 
ATOM      6  C   UNL     1       8.723   5.617 -10.119  0.00  0.00    +0.001 A 
ENDROOT
BRANCH   2   8
ATOM      7  O   UNL     1      11.338   3.913 -10.966  0.00  0.00    -0.245 OA
ATOM      8  C   UNL     1      11.147   4.562 -10.230  0.00  0.00    +0.340 C 
BRANCH   8   9
ATOM      9  O   UNL     1      11.899   5.039  -9.775  0.00  0.00    -0.477 OA
ATOM     10  H   UNL     1      12.396   4.722  -9.583  0.00  0.00    +0.295 HD
ENDBRANCH   8   9
ENDBRANCH   2   8
BRANCH   1  11
ATOM     11  O   UNL     1      10.331   3.481  -8.757  0.00  0.00    -0.425 OA
BRANCH  11  13
ATOM     12  O   UNL     1      10.050   3.639  -7.056  0.00  0.00    -0.251 OA
ATOM     13  C   UNL     1      10.015   3.092  -7.892  0.00  0.00    +0.309 C 
ATOM     14  C   UNL     1       9.665   2.156  -7.863  0.00  0.00    +0.136 C 
ENDBRANCH  11  13
ENDBRANCH   1  11
TORSDOF 4
ENDMDL
