MODEL 1
REMARK VINA RESULT:      -4.5      0.000      0.000
REMARK  Name = 2244
REMARK  5 active torsions:
REMARK  status: ('A' for Active; 'I' for Inactive)
REMARK    1  A    between atoms: O_1  and  C_5
REMARK    2  A    between atoms: O_1  and  C_12
REMARK    3  A    between atoms: O_2  and  C_11
REMARK    4  A    between atoms: C_6  and  C_11
REMARK    5  A    between atoms: C_12  and  C_13
REMARK                            x       y       z     vdW  Elec       q    Type
REMARK                         _______ _______ _______ _____ _____    ______ ____
ROOT
ATOM      1  C   UNL     1       9.325   5.388  -9.935  0.00  0.00    +0.146 A 
ATOM      2  C   UNL     1       8.582   6.043 -10.075  0.00  0.00    +0.101 A 
ATOM      3  C   UNL     1       9.270   4.722  -9.191  0.00  0.00    +0.047 A 
ATOM      4  C   UNL     1       7.786   6.032  -9.470  0.00  0.00    +0.018 A 
ATOM      5  C   UNL     1       8.474   4.711  -8.587  0.00  0.00    +0.004 A 
ATOM      6  C   UNL     1       7.731   5.366  -8.726  0.00  0.00    +0.001 A 
ENDROOT
BRANCH   2   8
ATOM      7  O   UNL     1       8.283   6.476 -11.725  0.00  0.00    -0.245 OA
ATOM      8  C   UNL     1       8.636   6.709 -10.819  0.00  0.00    +0.340 C 
BRANCH   8   9
ATOM      9  O   UNL     1       9.044   7.608 -10.657  0.00  0.00    -0.477 OA
ATOM     10  H   UNL     1       8.742   8.029 -10.317  0.00  0.00    +0.295 HD
ENDBRANCH   8   9
ENDBRANCH   2   8
BRANCH   1  11
ATOM     11  O   UNL     1      10.121   5.399 -10.539  0.00  0.00    -0.425 OA
BRANCH  11  13
ATOM     12  O   UNL     1      11.623   5.046  -9.752  0.00  0.00    -0.251 OA
ATOM     13  C   UNL     1      10.885   4.776 -10.371  0.00  0.00    +0.309 C 
ATOM     14  C   UNL     1      10.912   3.884 -10.821  0.00  0.00    +0.136 C 
ENDBRANCH  11  13
ENDBRANCH   1  11
TORSDOF 4
ENDMDL
MODEL 2
REMARK VINA RESULT:      -4.1      0.916      2.749
REMARK  Name = 2244
REMARK  5 active torsions:
REMARK  status: ('A' for Active; 'I' for Inactive)
REMARK    1  A    between atoms: O_1  and  C_5
REMARK    2  A    between atoms: O_1  and  C_12
REMARK    3  A    between atoms: O_2  and  C_11
REMARK    4  A    between atoms: C_6  and  C_11
REMARK    5  A    between atoms: C_12  and  C_13
REMARK                            x       y       z     vdW  Elec       q    Type
REMARK                         _______ _______ _______ _____ _____    ______ ____
ROOT
ATOM      1  C   UNL     1       9.548   4.963  -9.784  0.00  0.00    +0.146 A 
ATOM      2  C   UNL     1      10.345   4.474  -9.429  0.00  0.00    +0.101 A 
ATOM      3  C   UNL     1       8.699   4.984  -9.258  0.00  0.00    +0.047 A 
ATOM      4  C   UNL     1      10.291   4.005  -8.548  0.00  0.00    +0.018 A 
ATOM      5  C   UNL     1       8.645   4.515  -8.376  0.00  0.00    +0.004 A 
ATOM      6  C   UNL     1       9.442   4.025  -8.021  0.00  0.00    +0.001 A 
ENDROOT
BRANCH   2   8
ATOM      7  O   UNL     1      11.331   3.755 -10.659  0.00  0.00    -0.245 OA
ATOM      8  C   UNL     1      11.195   4.453  -9.956  0.00  0.00    +0.340 C 
BRANCH   8   9
ATOM      9  O   UNL     1      11.909   5.131  -9.780  0.00  0.00    -0.477 OA
ATOM     10  H   UNL     1      11.774   5.648  -9.465  0.00  0.00    +0.295 HD
ENDBRANCH   8   9
ENDBRANCH   2   8
BRANCH   1  11
ATOM     11  O   UNL     1       9.602   5.433 -10.666  0.00  0.00    -0.425 OA
BRANCH  11  13
ATOM     12  O   UNL     1       9.126   7.095 -10.570  0.00  0.00    -0.251 OA
ATOM     13  C   UNL     1       8.953   6.162 -10.884  0.00  0.00    +0.309 C 
ATOM     14  C   UNL     1       8.132   5.957 -11.417  0.00  0.00    +0.136 C 
ENDBRANCH  11  13
ENDBRANCH   1  11
TORSDOF 4
ENDMDL
MODEL 3
REMARK VINA RESULT:      -4.0      1.431      2.778
REMARK  Name = 2244
REMARK  5 active torsions:
REMARK  status: ('A' for Active; 'I' for Inactive)
REMARK    1  A    between atoms: O_1  and  C_5
REMARK    2  A    between atoms: O_1  and  C_12
REMARK    3  A    between atoms: O_2  and  C_11
REMARK    4  A    between atoms: C_6  and  C_11
REMARK    5  A    between atoms: C_12  and  C_13
REMARK                            x       y       z     vdW  Elec       q    Type
REMARK                         _______ _______ _______ _____ _____    ______ ____
ROOT
ATOM      1  C   UNL     1       8.346   5.729  -9.486  0.00  0.00    +0.146 A 
ATOM      2  C   UNL     1       8.880   5.981 -10.292  0.00  0.00    +0.101 A 
ATOM      3  C   UNL     1       8.613   4.937  -8.937  0.00  0.00    +0.047 A 
ATOM      4  C   UNL     1       9.681   5.442 -10.550  0.00  0.00    +0.018 A 
ATOM      5  C   UNL     1       9.414   4.397  -9.195  0.00  0.00    +0.004 A 
ATOM      6  C   UNL     1       9.948   4.649 -10.002  0.00  0.00    +0.001 A 
ENDROOT
BRANCH   2   8
ATOM      7  O   UNL     1       7.939   6.671 -11.572  0.00  0.00    -0.245 OA
ATOM      8  C   UNL     1       8.613   6.774 -10.841  0.00  0.00    +0.340 C 
BRANCH   8   9
ATOM      9  O   UNL     1       9.021   7.668 -10.659  0.00  0.00    -0.477 OA
ATOM     10  H   UNL     1       9.157   8.049 -11.129  0.00  0.00    +0.295 HD
ENDBRANCH   8   9
ENDBRANCH   2   8
BRANCH   1  11
ATOM     11  O   UNL     1       7.545   6.269  -9.228  0.00  0.00    -0.425 OA
BRANCH  11  13
ATOM     12  O   UNL     1       7.411   6.394  -7.505  0.00  0.00    -0.251 OA
ATOM     13  C   UNL     1       7.056   6.064  -8.380  0.00  0.00    +0.309 C 
ATOM     14  C   UNL     1       6.211   5.529  -8.407  0.00  0.00    +0.136 C 
ENDBRANCH  11  13
ENDBRANCH   1  11
TORSDOF 4
ENDMDL
MODEL 4
REMARK VINA RESULT:      -3.9      3.624      4.682
REMARK  Name = 2244
REMARK  5 active torsions:
REMARK  status: ('A' for Active; 'I' for Inactive)
REMARK    1  A    between atoms: O_1  and  C_5
REMARK    2  A    between atoms: O_1  and  C_12
REMARK    3  A    between atoms: O_2  and  C_11
REMARK    4  A    between atoms: C_6  and  C_11
REMARK    5  A    between atoms: C_12  and  C_13
REMARK                            x       y       z     vdW  Elec       q    Type
REMARK                         _______ _______ _______ _____ _____    ______ ____
ROOT
ATOM      1  C   UNL     1       6.752   6.397  -6.949  0.00  0.00    +0.146 A 
ATOM      2  C   UNL     1       6.683   6.708  -6.001  0.00  0.00    +0.101 A 
ATOM      3  C   UNL     1       5.985   6.530  -7.577  0.00  0.00    +0.047 A 
ATOM      4  C   UNL     1       5.846   7.153  -5.681  0.00  0.00    +0.018 A 
ATOM      5  C   UNL     1       5.148   6.975  -7.256  0.00  0.00    +0.004 A 
ATOM      6  C   UNL     1       5.079   7.286  -6.309  0.00  0.00    +0.001 A 
ENDROOT
BRANCH   2   8
ATOM      7  O   UNL     1       7.530   5.723  -4.857  0.00  0.00    -0.245 OA
ATOM      8  C   UNL     1       7.450   6.575  -5.374  0.00  0.00    +0.340 C 
BRANCH   8   9
ATOM      9  O   UNL     1       8.137   7.294  -5.264  0.00  0.00    -0.477 OA
ATOM     10  H   UNL     1       8.015   7.871  -5.455  0.00  0.00    +0.295 HD
ENDBRANCH   8   9
ENDBRANCH   2   8
BRANCH   1  11
ATOM     11  O   UNL     1       7.588   5.953  -7.270  0.00  0.00    -0.425 OA
BRANCH  11  13
ATOM     12  O   UNL     1       7.867   6.214  -8.959  0.00  0.00    -0.251 OA
ATOM     13  C   UNL     1       7.641   5.599  -8.204  0.00  0.00    +0.309 C 
ATOM     14  C   UNL     1       7.467   4.631  -8.382  0.00  0.00    +0.136 C 
ENDBRANCH  11  13
ENDBRANCH   1  11
TORSDOF 4
ENDMDL
MODEL 5
REMARK VINA RESULT:      -3.8      1.602      2.412
REMARK  Name = 2244
REMARK  5 active torsions:
REMARK  status: ('A' for Active; 'I' for Inactive)
REMARK    1  A    between atoms: O_1  and  C_5
REMARK    2  A    between atoms: O_1  and  C_12
REMARK    3  A    between atoms: O_2  and  C_11
REMARK    4  A    between atoms: C_6  and  C_11
REMARK    5  A    between atoms: C_12  and  C_13
REMARK                            x       y       z     vdW  Elec       q    Type
REMARK                         _______ _______ _______ _____ _____    ______ ____
ROOT
ATOM      1  C   UNL     1       9.408   4.870  -9.390  0.00  0.00    +0.146 A 
ATOM      2  C   UNL     1       8.654   4.868  -8.733  0.00  0.00    +0.101 A 
ATOM      3  C   UNL     1       9.349   5.426 -10.219  0.00  0.00    +0.047 A 
ATOM      4  C   UNL     1       7.841   5.424  -8.905  0.00  0.00    +0.018 A 
ATOM      5  C   UNL     1       8.535   5.982 -10.391  0.00  0.00    +0.004 A 
ATOM      6  C   UNL     1       7.781   5.980  -9.734  0.00  0.00    +0.001 A 
ENDROOT
BRANCH   2   8
ATOM      7  O   UNL     1       8.393   3.365  -7.914  0.00  0.00    -0.245 OA
ATOM      8  C   UNL     1       8.714   4.312  -7.905  0.00  0.00    +0.340 C 
BRANCH   8   9
ATOM      9  O   UNL     1       9.096   4.702  -7.067  0.00  0.00    -0.477 OA
ATOM     10  H   UNL     1       9.684   4.899  -7.056  0.00  0.00    +0.295 HD
ENDBRANCH   8   9
ENDBRANCH   2   8
BRANCH   1  11
ATOM     11  O   UNL     1      10.222   4.314  -9.219  0.00  0.00    -0.425 OA
BRANCH  11  13
ATOM     12  O   UNL     1      11.657   5.090  -9.801  0.00  0.00    -0.251 OA
ATOM     13  C   UNL     1      10.992   4.345  -9.856  0.00  0.00    +0.309 C 
ATOM     14  C   UNL     1      11.097   3.631 -10.548  0.00  0.00    +0.136 C 
ENDBRANCH  11  13
ENDBRANCH   1  11
TORSDOF 4
ENDMDL
MODEL 6
REMARK VINA RESULT:      -3.8      4.625      5.684
REMARK  Name = 2244
REMARK  5 active torsions:
REMARK  status: ('A' for Active; 'I' for Inactive)
REMARK    1  A    between atoms: O_1  and  C_5
REMARK    2  A    between atoms: O_1  and  C_12
REMARK    3  A    between atoms: O_2  and  C_11
REMARK    4  A    between atoms: C_6  and  C_11
REMARK    5  A    between atoms: C_12  and  C_13
REMARK                            x       y       z     vdW  Elec       q    Type
REMARK                         _______ _______ _______ _____ _____    ______ ____
ROOT
ATOM      1  C   UNL     1       7.195   6.188  -5.231  0.00  0.00    +0.146 A 
ATOM      2  C   UNL     1       7.591   6.515  -4.373  0.00  0.00    +0.101 A 
ATOM      3  C   UNL     1       6.264   5.823  -5.244  0.00  0.00    +0.047 A 
ATOM      4  C   UNL     1       7.057   6.479  -3.529  0.00  0.00    +0.018 A 
ATOM      5  C   UNL     1       5.729   5.787  -4.400  0.00  0.00    +0.004 A 
ATOM      6  C   UNL     1       6.126   6.114  -3.542  0.00  0.00    +0.001 A 
ENDROOT
BRANCH   2   8
ATOM      7  O   UNL     1       9.268   6.332  -3.981  0.00  0.00    -0.245 OA
ATOM      8  C   UNL     1       8.523   6.880  -4.360  0.00  0.00    +0.340 C 
BRANCH   8   9
ATOM      9  O   UNL     1       8.708   7.792  -4.726  0.00  0.00    -0.477 OA
ATOM     10  H   UNL     1       9.098   8.171  -4.430  0.00  0.00    +0.295 HD
ENDBRANCH   8   9
ENDBRANCH   2   8
BRANCH   1  11
ATOM     11  O   UNL     1       7.729   6.224  -6.075  0.00  0.00    -0.425 OA
BRANCH  11  13
ATOM     12  O   UNL     1       7.875   4.611  -6.687  0.00  0.00    -0.251 OA
ATOM     13  C   UNL     1       7.566   5.555  -6.800  0.00  0.00    +0.309 C 
ATOM     14  C   UNL     1       7.093   5.829  -7.637  0.00  0.00    +0.136 C 
ENDBRANCH  11  13
ENDBRANCH   1  11
TORSDOF 4
ENDMDL
MODEL 7
REMARK VINA RESULT:      -3.8      1.071      3.303
REMARK  Name = 2244
REMARK  5 active torsions:
REMARK  status: ('A' for Active; 'I' for Inactive)
REMARK    1  A    between atoms: O_1  and  C_5
REMARK    2  A    between atoms: O_1  and  C_12
REMARK    3  A    between atoms: O_2  and  C_11
REMARK    4  A    between atoms: C_6  and  C_11
REMARK    5  A    between atoms: C_12  and  C_13
REMARK                            x       y       z     vdW  Elec       q    Type
REMARK                         _______ _______ _______ _____ _____    ______ ____
ROOT
ATOM      1  C   UNL     1       9.677   4.831 -10.652  0.00  0.00    +0.146 A 
ATOM      2  C   UNL     1      10.463   4.276 -10.380  0.00  0.00    +0.101 A 
ATOM      3  C   UNL     1       9.024   4.479 -11.323  0.00  0.00    +0.047 A 
ATOM      4  C   UNL     1      10.597   3.369 -10.780  0.00  0.00    +0.018 A 
ATOM      5  C   UNL     1       9.158   3.572 -11.722  0.00  0.00    +0.004 A 
ATOM      6  C   UNL     1       9.944   3.017 -11.450  0.00  0.00    +0.001 A 
ENDROOT
BRANCH   2   8
ATOM      7  O   UNL     1      11.902   5.167 -10.012  0.00  0.00    -0.245 OA
ATOM      8  C   UNL     1      11.116   4.629  -9.710  0.00  0.00    +0.340 C 
BRANCH   8   9
ATOM      9  O   UNL     1      10.981   4.443  -8.736  0.00  0.00    -0.477 OA
ATOM     10  H   UNL     1      11.428   4.163  -8.410  0.00  0.00    +0.295 HD
ENDBRANCH   8   9
ENDBRANCH   2   8
BRANCH   1  11
ATOM     11  O   UNL     1       9.543   5.738 -10.253  0.00  0.00    -0.425 OA
BRANCH  11  13
ATOM     12  O   UNL     1       8.811   6.911 -11.297  0.00  0.00    -0.251 OA
ATOM     13  C   UNL     1       8.751   6.289 -10.516  0.00  0.00    +0.309 C 
ATOM     14  C   UNL     1       7.898   6.216  -9.999  0.00  0.00    +0.136 C 
ENDBRANCH  11  13
ENDBRANCH   1  11
TORSDOF 4
ENDMDL
MODEL 8
REMARK VINA RESULT:      -3.7      6.449      7.589
REMARK  Name = 2244
REMARK  5 active torsions:
REMARK  status: ('A' for Active; 'I' for Inactive)
REMARK    1  A    between atoms: O_1  and  C_5
REMARK    2  A    between atoms: O_1  and  C_12
REMARK    3  A    between atoms: O_2  and  C_11
REMARK    4  A    between atoms: C_6  and  C_11
REMARK    5  A    between atoms: C_12  and  C_13
REMARK                            x       y       z     vdW  Elec       q    Type
REMARK                         _______ _______ _______ _____ _____    ______ ____
ROOT
ATOM      1  C   UNL     1       6.946   6.527  -3.187  0.00  0.00    +0.146 A 
ATOM      2  C   UNL     1       7.321   6.351  -4.098  0.00  0.00    +0.101 A 
ATOM      3  C   UNL     1       6.072   6.123  -2.919  0.00  0.00    +0.047 A 
ATOM      4  C   UNL     1       6.820   5.771  -4.740  0.00  0.00    +0.018 A 
ATOM      5  C   UNL     1       5.572   5.542  -3.562  0.00  0.00    +0.004 A 
ATOM      6  C   UNL     1       5.946   5.366  -4.472  0.00  0.00    +0.001 A 
ENDROOT
BRANCH   2   8
ATOM      7  O   UNL     1       9.051   6.369  -4.022  0.00  0.00    -0.245 OA
ATOM      8  C   UNL     1       8.195   6.755  -4.366  0.00  0.00    +0.340 C 
BRANCH   8   9
ATOM      9  O   UNL     1       8.214   7.546  -4.978  0.00  0.00    -0.477 OA
ATOM     10  H   UNL     1       7.687   7.843  -5.116  0.00  0.00    +0.295 HD
ENDBRANCH   8   9
ENDBRANCH   2   8
BRANCH   1  11
ATOM     11  O   UNL     1       7.447   7.107  -2.545  0.00  0.00    -0.425 OA
BRANCH  11  13
ATOM     12  O   UNL     1       7.404   6.385  -0.971  0.00  0.00    -0.251 OA
ATOM     13  C   UNL     1       7.173   7.141  -1.584  0.00  0.00    +0.309 C 
ATOM     14  C   UNL     1       6.668   7.931  -1.235  0.00  0.00    +0.136 C 
ENDBRANCH  11  13
ENDBRANCH   1  11
TORSDOF 4
ENDMDL
MODEL 9
REMARK VINA RESULT:      -3.6      1.834      2.867
REMARK  Name = 2244
REMARK  5 active torsions:
REMARK  status: ('A' for Active; 'I' for Inactive)
REMARK    1  A    between atoms: O_1  and  C_5
REMARK    2  A    between atoms: O_1  and  C_12
REMARK    3  A    between atoms: O_2  and  C_11
REMARK    4  A    between atoms: C_6  and  C_11
REMARK    5  A    between atoms: C_12  and  C_13
REMARK                            x       y       z     vdW  Elec       q    Type
REMARK                         _______ _______ _______ _____ _____    ______ ____
ROOT
ATOM      1  C   UNL     1       9.630   4.607  -9.329  0.00  0.00    +0.146 A 
ATOM      2  C   UNL     1      10.217   4.905 -10.081  0.00  0.00    +0.101 A 
ATOM      3  C   UNL     1       8.696   4.957  -9.255  0.00  0.00    +0.047 A 
ATOM      4  C   UNL     1       9.871   5.553 -10.759  0.00  0.00    +0.018 A 
ATOM      5  C   UNL     1       8.350   5.605  -9.933  0.00  0.00    +0.004 A 
ATOM      6  C   UNL     1       8.937   5.904 -10.685  0.00  0.00    +0.001 A 
ENDROOT
BRANCH   2   8
ATOM      7  O   UNL     1      11.342   3.758 -10.729  0.00  0.00    -0.245 OA
ATOM      8  C   UNL     1      11.151   4.555 -10.156  0.00  0.00    +0.340 C 
BRANCH   8   9
ATOM      9  O   UNL     1      11.894   5.002  -9.657  0.00  0.00    -0.477 OA
ATOM     10  H   UNL     1      12.057   5.583  -9.799  0.00  0.00    +0.295 HD
ENDBRANCH   8   9
ENDBRANCH   2   8
BRANCH   1  11
ATOM     11  O   UNL     1       9.976   3.959  -8.651  0.00  0.00    -0.425 OA
BRANCH  11  13
ATOM     12  O   UNL     1       9.169   4.171  -7.134  0.00  0.00    -0.251 OA
ATOM     13  C   UNL     1       9.369   3.610  -7.937  0.00  0.00    +0.309 C 
ATOM     14  C   UNL     1       8.963   2.701  -8.025  0.00  0.00    +0.136 C 
ENDBRANCH  11  13
ENDBRANCH   1  11
TORSDOF 4
ENDMDL
