MODEL 1
REMARK VINA RESULT:      -4.5      0.000      0.000
REMARK  Name = 2244
REMARK  5 active torsions:
REMARK  status: ('A' for Active; 'I' for Inactive)
REMARK    1  A    between atoms: O_1  and  C_5
REMARK    2  A    between atoms: O_1  and  C_12
REMARK    3  A    between atoms: O_2  and  C_11
REMARK    4  A    between atoms: C_6  and  C_11
REMARK    5  A    between atoms: C_12  and  C_13
REMARK                            x       y       z     vdW  Elec       q    Type
REMARK                         _______ _______ _______ _____ _____    ______ ____
ROOT
ATOM      1  C   UNL     1       9.329   5.380  -9.938  0.00  0.00    +0.146 A 
ATOM      2  C   UNL     1       8.588   6.038 -10.075  0.00  0.00    +0.101 A 
ATOM      3  C   UNL     1       9.275   4.714  -9.194  0.00  0.00    +0.047 A 
ATOM      4  C   UNL     1       7.794   6.030  -9.467  0.00  0.00    +0.018 A 
ATOM      5  C   UNL     1       8.480   4.706  -8.587  0.00  0.00    +0.004 A 
ATOM      6  C   UNL     1       7.740   5.364  -8.723  0.00  0.00    +0.001 A 
ENDROOT
BRANCH   2   8
ATOM      7  O   UNL     1       8.289   6.471 -11.725  0.00  0.00    -0.245 OA
ATOM      8  C   UNL     1       8.642   6.704 -10.819  0.00  0.00    +0.340 C 
BRANCH   8   9
ATOM      9  O   UNL     1       9.049   7.603 -10.656  0.00  0.00    -0.477 OA
ATOM     10  H   UNL     1       9.452   7.682 -10.192  0.00  0.00    +0.295 HD
ENDBRANCH   8   9
ENDBRANCH   2   8
BRANCH   1  11
ATOM     11  O   UNL     1      10.123   5.388 -10.546  0.00  0.00    -0.425 OA
BRANCH  11  13
ATOM     12  O   UNL     1      11.626   5.051  -9.754  0.00  0.00    -0.251 OA
ATOM     13  C   UNL     1      10.891   4.772 -10.372  0.00  0.00    +0.309 C 
ATOM     14  C   UNL     1      10.925   3.877 -10.816  0.00  0.00    +0.136 C 
ENDBRANCH  11  13
ENDBRANCH   1  11
TORSDOF 4
ENDMDL
MODEL 2
REMARK VINA RESULT:      -4.2      0.912      2.749
REMARK  Name = 2244
REMARK  5 active torsions:
REMARK  status: ('A' for Active; 'I' for Inactive)
REMARK    1  A    between atoms: O_1  and  C_5
REMARK    2  A    between atoms: O_1  and  C_12
REMARK    3  A    between atoms: O_2  and  C_11
REMARK    4  A    between atoms: C_6  and  C_11
REMARK    5  A    between atoms: C_12  and  C_13
REMARK                            x       y       z     vdW  Elec       q    Type
REMARK                         _______ _______ _______ _____ _____    ______ ____
ROOT
ATOM      1  C   UNL     1       9.559   4.971  -9.793  0.00  0.00    +0.146 A 
ATOM      2  C   UNL     1      10.337   4.455  -9.436  0.00  0.00    +0.101 A 
ATOM      3  C   UNL     1       8.705   5.011  -9.274  0.00  0.00    +0.047 A 
ATOM      4  C   UNL     1      10.262   3.979  -8.560  0.00  0.00    +0.018 A 
ATOM      5  C   UNL     1       8.629   4.535  -8.398  0.00  0.00    +0.004 A 
ATOM      6  C   UNL     1       9.408   4.019  -8.041  0.00  0.00    +0.001 A 
ENDROOT
BRANCH   2   8
ATOM      7  O   UNL     1      11.327   3.698 -10.639  0.00  0.00    -0.245 OA
ATOM      8  C   UNL     1      11.191   4.415  -9.955  0.00  0.00    +0.340 C 
BRANCH   8   9
ATOM      9  O   UNL     1      11.909   5.091  -9.790  0.00  0.00    -0.477 OA
ATOM     10  H   UNL     1      11.759   5.686  -9.697  0.00  0.00    +0.295 HD
ENDBRANCH   8   9
ENDBRANCH   2   8
BRANCH   1  11
ATOM     11  O   UNL     1       9.634   5.447 -10.670  0.00  0.00    -0.425 OA
BRANCH  11  13
ATOM     12  O   UNL     1       9.153   7.109 -10.591  0.00  0.00    -0.251 OA
ATOM     13  C   UNL     1       8.987   6.173 -10.902  0.00  0.00    +0.309 C 
ATOM     14  C   UNL     1       8.173   5.963 -11.444  0.00  0.00    +0.136 C 
ENDBRANCH  11  13
ENDBRANCH   1  11
TORSDOF 4
ENDMDL
MODEL 3
REMARK VINA RESULT:      -4.0      1.429      2.750
REMARK  Name = 2244
REMARK  5 active torsions:
REMARK  status: ('A' for Active; 'I' for Inactive)
REMARK    1  A    between atoms: O_1  and  C_5
REMARK    2  A    between atoms: O_1  and  C_12
REMARK    3  A    between atoms: O_2  and  C_11
REMARK    4  A    between atoms: C_6  and  C_11
REMARK    5  A    between atoms: C_12  and  C_13
REMARK                            x       y       z     vdW  Elec       q    Type
REMARK                         _______ _______ _______ _____ _____    ______ ____
ROOT
ATOM      1  C   UNL     1       8.407   5.711  -9.514  0.00  0.00    +0.146 A 
ATOM      2  C   UNL     1       8.918   5.979 -10.330  0.00  0.00    +0.101 A 
ATOM      3  C   UNL     1       8.693   4.913  -8.984  0.00  0.00    +0.047 A 
ATOM      4  C   UNL     1       9.715   5.448 -10.617  0.00  0.00    +0.018 A 
ATOM      5  C   UNL     1       9.490   4.382  -9.271  0.00  0.00    +0.004 A 
ATOM      6  C   UNL     1      10.001   4.649 -10.088  0.00  0.00    +0.001 A 
ENDROOT
BRANCH   2   8
ATOM      7  O   UNL     1       7.948   6.679 -11.583  0.00  0.00    -0.245 OA
ATOM      8  C   UNL     1       8.632   6.778 -10.860  0.00  0.00    +0.340 C 
BRANCH   8   9
ATOM      9  O   UNL     1       9.029   7.674 -10.666  0.00  0.00    -0.477 OA
ATOM     10  H   UNL     1       8.851   8.170 -10.993  0.00  0.00    +0.295 HD
ENDBRANCH   8   9
ENDBRANCH   2   8
BRANCH   1  11
ATOM     11  O   UNL     1       7.609   6.242  -9.227  0.00  0.00    -0.425 OA
BRANCH  11  13
ATOM     12  O   UNL     1       7.472   6.333  -7.502  0.00  0.00    -0.251 OA
ATOM     13  C   UNL     1       7.128   6.006  -8.382  0.00  0.00    +0.309 C 
ATOM     14  C   UNL     1       6.304   5.441  -8.419  0.00  0.00    +0.136 C 
ENDBRANCH  11  13
ENDBRANCH   1  11
TORSDOF 4
ENDMDL
MODEL 4
REMARK VINA RESULT:      -3.9      3.630      4.689
REMARK  Name = 2244
REMARK  5 active torsions:
REMARK  status: ('A' for Active; 'I' for Inactive)
REMARK    1  A    between atoms: O_1  and  C_5
REMARK    2  A    between atoms: O_1  and  C_12
REMARK    3  A    between atoms: O_2  and  C_11
REMARK    4  A    between atoms: C_6  and  C_11
REMARK    5  A    between atoms: C_12  and  C_13
REMARK                            x       y       z     vdW  Elec       q    Type
REMARK                         _______ _______ _______ _____ _____    ______ ____
ROOT
ATOM      1  C   UNL     1       6.752   6.399  -6.945  0.00  0.00    +0.146 A 
ATOM      2  C   UNL     1       6.683   6.710  -5.997  0.00  0.00    +0.101 A 
ATOM      3  C   UNL     1       5.985   6.532  -7.572  0.00  0.00    +0.047 A 
ATOM      4  C   UNL     1       5.847   7.154  -5.676  0.00  0.00    +0.018 A 
ATOM      5  C   UNL     1       5.148   6.976  -7.251  0.00  0.00    +0.004 A 
ATOM      6  C   UNL     1       5.079   7.287  -6.303  0.00  0.00    +0.001 A 
ENDROOT
BRANCH   2   8
ATOM      7  O   UNL     1       7.531   5.725  -4.851  0.00  0.00    -0.245 OA
ATOM      8  C   UNL     1       7.451   6.577  -5.370  0.00  0.00    +0.340 C 
BRANCH   8   9
ATOM      9  O   UNL     1       8.138   7.295  -5.261  0.00  0.00    -0.477 OA
ATOM     10  H   UNL     1       8.691   7.160  -5.014  0.00  0.00    +0.295 HD
ENDBRANCH   8   9
ENDBRANCH   2   8
BRANCH   1  11
ATOM     11  O   UNL     1       7.589   5.954  -7.265  0.00  0.00    -0.425 OA
BRANCH  11  13
ATOM     12  O   UNL     1       7.861   6.214  -8.956  0.00  0.00    -0.251 OA
ATOM     13  C   UNL     1       7.640   5.600  -8.199  0.00  0.00    +0.309 C 
ATOM     14  C   UNL     1       7.470   4.630  -8.375  0.00  0.00    +0.136 C 
ENDBRANCH  11  13
ENDBRANCH   1  11
TORSDOF 4
ENDMDL
MODEL 5
REMARK VINA RESULT:      -3.9      6.381      7.533
REMARK  Name = 2244
REMARK  5 active torsions:
REMARK  status: ('A' for Active; 'I' for Inactive)
REMARK    1  A    between atoms: O_1  and  C_5
REMARK    2  A    between atoms: O_1  and  C_12
REMARK    3  A    between atoms: O_2  and  C_11
REMARK    4  A    between atoms: C_6  and  C_11
REMARK    5  A    between atoms: C_12  and  C_13
REMARK                            x       y       z     vdW  Elec       q    Type
REMARK                         _______ _______ _______ _____ _____    ______ ____
ROOT
ATOM      1  C   UNL     1       6.965   6.655  -3.297  0.00  0.00    +0.146 A 
ATOM      2  C   UNL     1       7.394   6.447  -4.176  0.00  0.00    +0.101 A 
ATOM      3  C   UNL     1       6.024   6.366  -3.120  0.00  0.00    +0.047 A 
ATOM      4  C   UNL     1       6.882   5.952  -4.878  0.00  0.00    +0.018 A 
ATOM      5  C   UNL     1       5.512   5.871  -3.822  0.00  0.00    +0.004 A 
ATOM      6  C   UNL     1       5.941   5.663  -4.701  0.00  0.00    +0.001 A 
ENDROOT
BRANCH   2   8
ATOM      7  O   UNL     1       9.098   6.163  -4.053  0.00  0.00    -0.245 OA
ATOM      8  C   UNL     1       8.335   6.736  -4.353  0.00  0.00    +0.340 C 
BRANCH   8   9
ATOM      9  O   UNL     1       8.513   7.596  -4.831  0.00  0.00    -0.477 OA
ATOM     10  H   UNL     1       8.218   7.723  -5.361  0.00  0.00    +0.295 HD
ENDBRANCH   8   9
ENDBRANCH   2   8
BRANCH   1  11
ATOM     11  O   UNL     1       7.476   7.150  -2.595  0.00  0.00    -0.425 OA
BRANCH  11  13
ATOM     12  O   UNL     1       7.294   6.290  -1.103  0.00  0.00    -0.251 OA
ATOM     13  C   UNL     1       7.173   7.123  -1.643  0.00  0.00    +0.309 C 
ATOM     14  C   UNL     1       6.749   7.929  -1.230  0.00  0.00    +0.136 C 
ENDBRANCH  11  13
ENDBRANCH   1  11
TORSDOF 4
ENDMDL
MODEL 6
REMARK VINA RESULT:      -3.8      1.599      2.411
REMARK  Name = 2244
REMARK  5 active torsions:
REMARK  status: ('A' for Active; 'I' for Inactive)
REMARK    1  A    between atoms: O_1  and  C_5
REMARK    2  A    between atoms: O_1  and  C_12
REMARK    3  A    between atoms: O_2  and  C_11
REMARK    4  A    between atoms: C_6  and  C_11
REMARK    5  A    between atoms: C_12  and  C_13
REMARK                            x       y       z     vdW  Elec       q    Type
REMARK                         _______ _______ _______ _____ _____    ______ ____
ROOT
ATOM      1  C   UNL     1       9.410   4.868  -9.391  0.00  0.00    +0.146 A 
ATOM      2  C   UNL     1       8.657   4.867  -8.733  0.00  0.00    +0.101 A 
ATOM      3  C   UNL     1       9.349   5.426 -10.219  0.00  0.00    +0.047 A 
ATOM      4  C   UNL     1       7.843   5.423  -8.904  0.00  0.00    +0.018 A 
ATOM      5  C   UNL     1       8.535   5.981 -10.390  0.00  0.00    +0.004 A 
ATOM      6  C   UNL     1       7.782   5.980  -9.732  0.00  0.00    +0.001 A 
ENDROOT
BRANCH   2   8
ATOM      7  O   UNL     1       8.396   3.363  -7.915  0.00  0.00    -0.245 OA
ATOM      8  C   UNL     1       8.717   4.310  -7.905  0.00  0.00    +0.340 C 
BRANCH   8   9
ATOM      9  O   UNL     1       9.099   4.700  -7.067  0.00  0.00    -0.477 OA
ATOM     10  H   UNL     1       9.708   4.807  -7.025  0.00  0.00    +0.295 HD
ENDBRANCH   8   9
ENDBRANCH   2   8
BRANCH   1  11
ATOM     11  O   UNL     1      10.223   4.313  -9.221  0.00  0.00    -0.425 OA
BRANCH  11  13
ATOM     12  O   UNL     1      11.658   5.091  -9.802  0.00  0.00    -0.251 OA
ATOM     13  C   UNL     1      10.993   4.345  -9.858  0.00  0.00    +0.309 C 
ATOM     14  C   UNL     1      11.099   3.632 -10.551  0.00  0.00    +0.136 C 
ENDBRANCH  11  13
ENDBRANCH   1  11
TORSDOF 4
ENDMDL
MODEL 7
REMARK VINA RESULT:      -3.8      4.294      5.335
REMARK  Name = 2244
REMARK  5 active torsions:
REMARK  status: ('A' for Active; 'I' for Inactive)
REMARK    1  A    between atoms: O_1  and  C_5
REMARK    2  A    between atoms: O_1  and  C_12
REMARK    3  A    between atoms: O_2  and  C_11
REMARK    4  A    between atoms: C_6  and  C_11
REMARK    5  A    between atoms: C_12  and  C_13
REMARK                            x       y       z     vdW  Elec       q    Type
REMARK                         _______ _______ _______ _____ _____    ______ ____
ROOT
ATOM      1  C   UNL     1       7.088   5.707  -5.581  0.00  0.00    +0.146 A 
ATOM      2  C   UNL     1       7.197   6.320  -4.799  0.00  0.00    +0.101 A 
ATOM      3  C   UNL     1       6.189   5.326  -5.796  0.00  0.00    +0.047 A 
ATOM      4  C   UNL     1       6.407   6.553  -4.231  0.00  0.00    +0.018 A 
ATOM      5  C   UNL     1       5.399   5.558  -5.228  0.00  0.00    +0.004 A 
ATOM      6  C   UNL     1       5.508   6.171  -4.446  0.00  0.00    +0.001 A 
ENDROOT
BRANCH   2   8
ATOM      7  O   UNL     1       8.706   6.221  -3.953  0.00  0.00    -0.245 OA
ATOM      8  C   UNL     1       8.097   6.702  -4.584  0.00  0.00    +0.340 C 
BRANCH   8   9
ATOM      9  O   UNL     1       8.387   7.563  -5.001  0.00  0.00    -0.477 OA
ATOM     10  H   UNL     1       8.054   7.813  -5.460  0.00  0.00    +0.295 HD
ENDBRANCH   8   9
ENDBRANCH   2   8
BRANCH   1  11
ATOM     11  O   UNL     1       7.878   5.475  -6.148  0.00  0.00    -0.425 OA
BRANCH  11  13
ATOM     12  O   UNL     1       7.562   6.098  -7.733  0.00  0.00    -0.251 OA
ATOM     13  C   UNL     1       7.762   5.326  -7.130  0.00  0.00    +0.309 C 
ATOM     14  C   UNL     1       7.846   4.404  -7.510  0.00  0.00    +0.136 C 
ENDBRANCH  11  13
ENDBRANCH   1  11
TORSDOF 4
ENDMDL
MODEL 8
REMARK VINA RESULT:      -3.7      5.948      7.086
REMARK  Name = 2244
REMARK  5 active torsions:
REMARK  status: ('A' for Active; 'I' for Inactive)
REMARK    1  A    between atoms: O_1  and  C_5
REMARK    2  A    between atoms: O_1  and  C_12
REMARK    3  A    between atoms: O_2  and  C_11
REMARK    4  A    between atoms: C_6  and  C_11
REMARK    5  A    between atoms: C_12  and  C_13
REMARK                            x       y       z     vdW  Elec       q    Type
REMARK                         _______ _______ _______ _____ _____    ______ ____
ROOT
ATOM      1  C   UNL     1       7.112   6.191  -3.718  0.00  0.00    +0.146 A 
ATOM      2  C   UNL     1       7.761   6.580  -4.371  0.00  0.00    +0.101 A 
ATOM      3  C   UNL     1       6.193   5.936  -4.018  0.00  0.00    +0.047 A 
ATOM      4  C   UNL     1       7.492   6.714  -5.324  0.00  0.00    +0.018 A 
ATOM      5  C   UNL     1       5.923   6.070  -4.971  0.00  0.00    +0.004 A 
ATOM      6  C   UNL     1       6.572   6.459  -5.625  0.00  0.00    +0.001 A 
ENDROOT
BRANCH   2   8
ATOM      7  O   UNL     1       8.838   7.726  -3.644  0.00  0.00    -0.245 OA
ATOM      8  C   UNL     1       8.681   6.835  -4.071  0.00  0.00    +0.340 C 
BRANCH   8   9
ATOM      9  O   UNL     1       9.442   6.200  -4.197  0.00  0.00    -0.477 OA
ATOM     10  H   UNL     1       9.455   5.825  -4.691  0.00  0.00    +0.295 HD
ENDBRANCH   8   9
ENDBRANCH   2   8
BRANCH   1  11
ATOM     11  O   UNL     1       7.382   6.057  -2.764  0.00  0.00    -0.425 OA
BRANCH  11  13
ATOM     12  O   UNL     1       7.456   4.358  -2.437  0.00  0.00    -0.251 OA
ATOM     13  C   UNL     1       7.056   5.257  -2.260  0.00  0.00    +0.309 C 
ATOM     14  C   UNL     1       6.331   5.356  -1.579  0.00  0.00    +0.136 C 
ENDBRANCH  11  13
ENDBRANCH   1  11
TORSDOF 4
ENDMDL
MODEL 9
REMARK VINA RESULT:      -3.6      1.826      2.844
REMARK  Name = 2244
REMARK  5 active torsions:
REMARK  status: ('A' for Active; 'I' for Inactive)
REMARK    1  A    between atoms: O_1  and  C_5
REMARK    2  A    between atoms: O_1  and  C_12
REMARK    3  A    between atoms: O_2  and  C_11
REMARK    4  A    between atoms: C_6  and  C_11
REMARK    5  A    between atoms: C_12  and  C_13
REMARK                            x       y       z     vdW  Elec       q    Type
REMARK                         _______ _______ _______ _____ _____    ______ ____
ROOT
ATOM      1  C   UNL     1       9.658   4.535  -9.314  0.00  0.00    +0.146 A 
ATOM      2  C   UNL     1      10.221   4.885 -10.063  0.00  0.00    +0.101 A 
ATOM      3  C   UNL     1       8.718   4.859  -9.201  0.00  0.00    +0.047 A 
ATOM      4  C   UNL     1       9.844   5.558 -10.699  0.00  0.00    +0.018 A 
ATOM      5  C   UNL     1       8.342   5.532  -9.837  0.00  0.00    +0.004 A 
ATOM      6  C   UNL     1       8.905   5.882 -10.586  0.00  0.00    +0.001 A 
ENDROOT
BRANCH   2   8
ATOM      7  O   UNL     1      11.353   3.786 -10.777  0.00  0.00    -0.245 OA
ATOM      8  C   UNL     1      11.160   4.561 -10.175  0.00  0.00    +0.340 C 
BRANCH   8   9
ATOM      9  O   UNL     1      11.906   5.012  -9.686  0.00  0.00    -0.477 OA
ATOM     10  H   UNL     1      11.927   5.631  -9.654  0.00  0.00    +0.295 HD
ENDBRANCH   8   9
ENDBRANCH   2   8
BRANCH   1  11
ATOM     11  O   UNL     1      10.034   3.862  -8.677  0.00  0.00    -0.425 OA
BRANCH  11  13
ATOM     12  O   UNL     1       9.352   4.056  -7.097  0.00  0.00    -0.251 OA
ATOM     13  C   UNL     1       9.471   3.513  -7.928  0.00  0.00    +0.309 C 
ATOM     14  C   UNL     1       9.028   2.620  -8.010  0.00  0.00    +0.136 C 
ENDBRANCH  11  13
ENDBRANCH   1  11
TORSDOF 4
ENDMDL
