MODEL 1
REMARK VINA RESULT:      -4.5      0.000      0.000
REMARK  Name = 2244
REMARK  5 active torsions:
REMARK  status: ('A' for Active; 'I' for Inactive)
REMARK    1  A    between atoms: O_1  and  C_5
REMARK    2  A    between atoms: O_1  and  C_12
REMARK    3  A    between atoms: O_2  and  C_11
REMARK    4  A    between atoms: C_6  and  C_11
REMARK    5  A    between atoms: C_12  and  C_13
REMARK                            x       y       z     vdW  Elec       q    Type
REMARK                         _______ _______ _______ _____ _____    ______ ____
ROOT
ATOM      1  C   UNL     1       9.326   5.387  -9.937  0.00  0.00    +0.146 A 
ATOM      2  C   UNL     1       8.583   6.042 -10.075  0.00  0.00    +0.101 A 
ATOM      3  C   UNL     1       9.273   4.720  -9.193  0.00  0.00    +0.047 A 
ATOM      4  C   UNL     1       7.787   6.031  -9.470  0.00  0.00    +0.018 A 
ATOM      5  C   UNL     1       8.477   4.709  -8.588  0.00  0.00    +0.004 A 
ATOM      6  C   UNL     1       7.734   5.365  -8.726  0.00  0.00    +0.001 A 
ENDROOT
BRANCH   2   8
ATOM      7  O   UNL     1       8.284   6.476 -11.725  0.00  0.00    -0.245 OA
ATOM      8  C   UNL     1       8.637   6.709 -10.819  0.00  0.00    +0.340 C 
BRANCH   8   9
ATOM      9  O   UNL     1       9.044   7.607 -10.656  0.00  0.00    -0.477 OA
ATOM     10  H   UNL     1       8.737   8.121 -10.821  0.00  0.00    +0.295 HD
ENDBRANCH   8   9
ENDBRANCH   2   8
BRANCH   1  11
ATOM     11  O   UNL     1      10.122   5.398 -10.542  0.00  0.00    -0.425 OA
BRANCH  11  13
ATOM     12  O   UNL     1      11.624   5.046  -9.753  0.00  0.00    -0.251 OA
ATOM     13  C   UNL     1      10.887   4.776 -10.373  0.00  0.00    +0.309 C 
ATOM     14  C   UNL     1      10.915   3.884 -10.825  0.00  0.00    +0.136 C 
ENDBRANCH  11  13
ENDBRANCH   1  11
TORSDOF 4
ENDMDL
MODEL 2
REMARK VINA RESULT:      -4.2      0.922      2.755
REMARK  Name = 2244
REMARK  5 active torsions:
REMARK  status: ('A' for Active; 'I' for Inactive)
REMARK    1  A    between atoms: O_1  and  C_5
REMARK    2  A    between atoms: O_1  and  C_12
REMARK    3  A    between atoms: O_2  and  C_11
REMARK    4  A    between atoms: C_6  and  C_11
REMARK    5  A    between atoms: C_12  and  C_13
REMARK                            x       y       z     vdW  Elec       q    Type
REMARK                         _______ _______ _______ _____ _____    ______ ____
ROOT
ATOM      1  C   UNL     1       9.553   4.954  -9.773  0.00  0.00    +0.146 A 
ATOM      2  C   UNL     1      10.345   4.452  -9.424  0.00  0.00    +0.101 A 
ATOM      3  C   UNL     1       8.706   4.983  -9.242  0.00  0.00    +0.047 A 
ATOM      4  C   UNL     1      10.289   3.979  -8.545  0.00  0.00    +0.018 A 
ATOM      5  C   UNL     1       8.651   4.510  -8.363  0.00  0.00    +0.004 A 
ATOM      6  C   UNL     1       9.442   4.008  -8.014  0.00  0.00    +0.001 A 
ENDROOT
BRANCH   2   8
ATOM      7  O   UNL     1      11.323   3.717 -10.650  0.00  0.00    -0.245 OA
ATOM      8  C   UNL     1      11.192   4.423  -9.955  0.00  0.00    +0.340 C 
BRANCH   8   9
ATOM      9  O   UNL     1      11.908   5.101  -9.790  0.00  0.00    -0.477 OA
ATOM     10  H   UNL     1      11.845   5.514  -9.332  0.00  0.00    +0.295 HD
ENDBRANCH   8   9
ENDBRANCH   2   8
BRANCH   1  11
ATOM     11  O   UNL     1       9.609   5.427 -10.652  0.00  0.00    -0.425 OA
BRANCH  11  13
ATOM     12  O   UNL     1       9.149   7.095 -10.568  0.00  0.00    -0.251 OA
ATOM     13  C   UNL     1       8.963   6.159 -10.867  0.00  0.00    +0.309 C 
ATOM     14  C   UNL     1       8.130   5.956 -11.383  0.00  0.00    +0.136 C 
ENDBRANCH  11  13
ENDBRANCH   1  11
TORSDOF 4
ENDMDL
MODEL 3
REMARK VINA RESULT:      -4.0      1.432      2.781
REMARK  Name = 2244
REMARK  5 active torsions:
REMARK  status: ('A' for Active; 'I' for Inactive)
REMARK    1  A    between atoms: O_1  and  C_5
REMARK    2  A    between atoms: O_1  and  C_12
REMARK    3  A    between atoms: O_2  and  C_11
REMARK    4  A    between atoms: C_6  and  C_11
REMARK    5  A    between atoms: C_12  and  C_13
REMARK                            x       y       z     vdW  Elec       q    Type
REMARK                         _______ _______ _______ _____ _____    ______ ____
ROOT
ATOM      1  C   UNL     1       8.345   5.730  -9.486  0.00  0.00    +0.146 A 
ATOM      2  C   UNL     1       8.885   5.984 -10.289  0.00  0.00    +0.101 A 
ATOM      3  C   UNL     1       8.615   4.944  -8.930  0.00  0.00    +0.047 A 
ATOM      4  C   UNL     1       9.694   5.452 -10.535  0.00  0.00    +0.018 A 
ATOM      5  C   UNL     1       9.424   4.412  -9.177  0.00  0.00    +0.004 A 
ATOM      6  C   UNL     1       9.964   4.666  -9.979  0.00  0.00    +0.001 A 
ENDROOT
BRANCH   2   8
ATOM      7  O   UNL     1       7.942   6.659 -11.576  0.00  0.00    -0.245 OA
ATOM      8  C   UNL     1       8.615   6.770 -10.845  0.00  0.00    +0.340 C 
BRANCH   8   9
ATOM      9  O   UNL     1       9.018   7.669 -10.669  0.00  0.00    -0.477 OA
ATOM     10  H   UNL     1       9.538   7.715 -10.335  0.00  0.00    +0.295 HD
ENDBRANCH   8   9
ENDBRANCH   2   8
BRANCH   1  11
ATOM     11  O   UNL     1       7.535   6.263  -9.240  0.00  0.00    -0.425 OA
BRANCH  11  13
ATOM     12  O   UNL     1       7.413   6.397  -7.517  0.00  0.00    -0.251 OA
ATOM     13  C   UNL     1       7.048   6.067  -8.388  0.00  0.00    +0.309 C 
ATOM     14  C   UNL     1       6.198   5.542  -8.408  0.00  0.00    +0.136 C 
ENDBRANCH  11  13
ENDBRANCH   1  11
TORSDOF 4
ENDMDL
MODEL 4
REMARK VINA RESULT:      -3.9      3.625      4.684
REMARK  Name = 2244
REMARK  5 active torsions:
REMARK  status: ('A' for Active; 'I' for Inactive)
REMARK    1  A    between atoms: O_1  and  C_5
REMARK    2  A    between atoms: O_1  and  C_12
REMARK    3  A    between atoms: O_2  and  C_11
REMARK    4  A    between atoms: C_6  and  C_11
REMARK    5  A    between atoms: C_12  and  C_13
REMARK                            x       y       z     vdW  Elec       q    Type
REMARK                         _______ _______ _______ _____ _____    ______ ____
ROOT
ATOM      1  C   UNL     1       6.752   6.398  -6.949  0.00  0.00    +0.146 A 
ATOM      2  C   UNL     1       6.683   6.709  -6.001  0.00  0.00    +0.101 A 
ATOM      3  C   UNL     1       5.985   6.531  -7.576  0.00  0.00    +0.047 A 
ATOM      4  C   UNL     1       5.846   7.153  -5.681  0.00  0.00    +0.018 A 
ATOM      5  C   UNL     1       5.148   6.975  -7.256  0.00  0.00    +0.004 A 
ATOM      6  C   UNL     1       5.079   7.286  -6.308  0.00  0.00    +0.001 A 
ENDROOT
BRANCH   2   8
ATOM      7  O   UNL     1       7.531   5.723  -4.857  0.00  0.00    -0.245 OA
ATOM      8  C   UNL     1       7.450   6.575  -5.374  0.00  0.00    +0.340 C 
BRANCH   8   9
ATOM      9  O   UNL     1       8.137   7.294  -5.264  0.00  0.00    -0.477 OA
ATOM     10  H   UNL     1       8.407   7.383  -4.713  0.00  0.00    +0.295 HD
ENDBRANCH   8   9
ENDBRANCH   2   8
BRANCH   1  11
ATOM     11  O   UNL     1       7.588   5.953  -7.270  0.00  0.00    -0.425 OA
BRANCH  11  13
ATOM     12  O   UNL     1       7.866   6.214  -8.959  0.00  0.00    -0.251 OA
ATOM     13  C   UNL     1       7.640   5.599  -8.204  0.00  0.00    +0.309 C 
ATOM     14  C   UNL     1       7.466   4.631  -8.382  0.00  0.00    +0.136 C 
ENDBRANCH  11  13
ENDBRANCH   1  11
TORSDOF 4
ENDMDL
MODEL 5
REMARK VINA RESULT:      -3.8      1.601      2.412
REMARK  Name = 2244
REMARK  5 active torsions:
REMARK  status: ('A' for Active; 'I' for Inactive)
REMARK    1  A    between atoms: O_1  and  C_5
REMARK    2  A    between atoms: O_1  and  C_12
REMARK    3  A    between atoms: O_2  and  C_11
REMARK    4  A    between atoms: C_6  and  C_11
REMARK    5  A    between atoms: C_12  and  C_13
REMARK                            x       y       z     vdW  Elec       q    Type
REMARK                         _______ _______ _______ _____ _____    ______ ____
ROOT
ATOM      1  C   UNL     1       9.405   4.868  -9.392  0.00  0.00    +0.146 A 
ATOM      2  C   UNL     1       8.652   4.869  -8.734  0.00  0.00    +0.101 A 
ATOM      3  C   UNL     1       9.346   5.425 -10.220  0.00  0.00    +0.047 A 
ATOM      4  C   UNL     1       7.840   5.426  -8.904  0.00  0.00    +0.018 A 
ATOM      5  C   UNL     1       8.533   5.982 -10.391  0.00  0.00    +0.004 A 
ATOM      6  C   UNL     1       7.780   5.983  -9.733  0.00  0.00    +0.001 A 
ENDROOT
BRANCH   2   8
ATOM      7  O   UNL     1       8.392   3.365  -7.915  0.00  0.00    -0.245 OA
ATOM      8  C   UNL     1       8.712   4.312  -7.905  0.00  0.00    +0.340 C 
BRANCH   8   9
ATOM      9  O   UNL     1       9.091   4.703  -7.066  0.00  0.00    -0.477 OA
ATOM     10  H   UNL     1       9.695   4.839  -7.033  0.00  0.00    +0.295 HD
ENDBRANCH   8   9
ENDBRANCH   2   8
BRANCH   1  11
ATOM     11  O   UNL     1      10.218   4.311  -9.221  0.00  0.00    -0.425 OA
BRANCH  11  13
ATOM     12  O   UNL     1      11.653   5.090  -9.799  0.00  0.00    -0.251 OA
ATOM     13  C   UNL     1      10.990   4.344  -9.856  0.00  0.00    +0.309 C 
ATOM     14  C   UNL     1      11.098   3.632 -10.549  0.00  0.00    +0.136 C 
ENDBRANCH  11  13
ENDBRANCH   1  11
TORSDOF 4
ENDMDL
MODEL 6
REMARK VINA RESULT:      -3.8      1.154      3.269
REMARK  Name = 2244
REMARK  5 active torsions:
REMARK  status: ('A' for Active; 'I' for Inactive)
REMARK    1  A    between atoms: O_1  and  C_5
REMARK    2  A    between atoms: O_1  and  C_12
REMARK    3  A    between atoms: O_2  and  C_11
REMARK    4  A    between atoms: C_6  and  C_11
REMARK    5  A    between atoms: C_12  and  C_13
REMARK                            x       y       z     vdW  Elec       q    Type
REMARK                         _______ _______ _______ _____ _____    ______ ____
ROOT
ATOM      1  C   UNL     1       9.594   4.826 -10.612  0.00  0.00    +0.146 A 
ATOM      2  C   UNL     1      10.401   4.284 -10.379  0.00  0.00    +0.101 A 
ATOM      3  C   UNL     1       8.932   4.477 -11.275  0.00  0.00    +0.047 A 
ATOM      4  C   UNL     1      10.546   3.393 -10.808  0.00  0.00    +0.018 A 
ATOM      5  C   UNL     1       9.077   3.586 -11.705  0.00  0.00    +0.004 A 
ATOM      6  C   UNL     1       9.884   3.044 -11.472  0.00  0.00    +0.001 A 
ENDROOT
BRANCH   2   8
ATOM      7  O   UNL     1      11.846   5.171 -10.027  0.00  0.00    -0.245 OA
ATOM      8  C   UNL     1      11.063   4.634  -9.715  0.00  0.00    +0.340 C 
BRANCH   8   9
ATOM      9  O   UNL     1      10.941   4.445  -8.741  0.00  0.00    -0.477 OA
ATOM     10  H   UNL     1      10.371   4.426  -8.498  0.00  0.00    +0.295 HD
ENDBRANCH   8   9
ENDBRANCH   2   8
BRANCH   1  11
ATOM     11  O   UNL     1       9.448   5.717 -10.182  0.00  0.00    -0.425 OA
BRANCH  11  13
ATOM     12  O   UNL     1       9.170   6.969 -11.347  0.00  0.00    -0.251 OA
ATOM     13  C   UNL     1       8.836   6.384 -10.608  0.00  0.00    +0.309 C 
ATOM     14  C   UNL     1       7.890   6.465 -10.295  0.00  0.00    +0.136 C 
ENDBRANCH  11  13
ENDBRANCH   1  11
TORSDOF 4
ENDMDL
MODEL 7
REMARK VINA RESULT:      -3.8      6.043      7.283
REMARK  Name = 2244
REMARK  5 active torsions:
REMARK  status: ('A' for Active; 'I' for Inactive)
REMARK    1  A    between atoms: O_1  and  C_5
REMARK    2  A    between atoms: O_1  and  C_12
REMARK    3  A    between atoms: O_2  and  C_11
REMARK    4  A    between atoms: C_6  and  C_11
REMARK    5  A    between atoms: C_12  and  C_13
REMARK                            x       y       z     vdW  Elec       q    Type
REMARK                         _______ _______ _______ _____ _____    ______ ____
ROOT
ATOM      1  C   UNL     1       7.037   6.720  -3.698  0.00  0.00    +0.146 A 
ATOM      2  C   UNL     1       7.665   6.689  -4.476  0.00  0.00    +0.101 A 
ATOM      3  C   UNL     1       6.090   6.418  -3.808  0.00  0.00    +0.047 A 
ATOM      4  C   UNL     1       7.346   6.356  -5.363  0.00  0.00    +0.018 A 
ATOM      5  C   UNL     1       5.771   6.085  -4.696  0.00  0.00    +0.004 A 
ATOM      6  C   UNL     1       6.399   6.054  -5.473  0.00  0.00    +0.001 A 
ENDROOT
BRANCH   2   8
ATOM      7  O   UNL     1       9.286   6.382  -3.947  0.00  0.00    -0.245 OA
ATOM      8  C   UNL     1       8.612   6.991  -4.365  0.00  0.00    +0.340 C 
BRANCH   8   9
ATOM      9  O   UNL     1       8.885   7.902  -4.674  0.00  0.00    -0.477 OA
ATOM     10  H   UNL     1       9.308   7.964  -5.123  0.00  0.00    +0.295 HD
ENDBRANCH   8   9
ENDBRANCH   2   8
BRANCH   1  11
ATOM     11  O   UNL     1       7.355   7.053  -2.811  0.00  0.00    -0.425 OA
BRANCH  11  13
ATOM     12  O   UNL     1       6.127   7.930  -1.961  0.00  0.00    -0.251 OA
ATOM     13  C   UNL     1       6.716   7.127  -2.045  0.00  0.00    +0.309 C 
ATOM     14  C   UNL     1       6.666   6.397  -1.364  0.00  0.00    +0.136 C 
ENDBRANCH  11  13
ENDBRANCH   1  11
TORSDOF 4
ENDMDL
MODEL 8
REMARK VINA RESULT:      -3.8      4.284      5.323
REMARK  Name = 2244
REMARK  5 active torsions:
REMARK  status: ('A' for Active; 'I' for Inactive)
REMARK    1  A    between atoms: O_1  and  C_5
REMARK    2  A    between atoms: O_1  and  C_12
REMARK    3  A    between atoms: O_2  and  C_11
REMARK    4  A    between atoms: C_6  and  C_11
REMARK    5  A    between atoms: C_12  and  C_13
REMARK                            x       y       z     vdW  Elec       q    Type
REMARK                         _______ _______ _______ _____ _____    ______ ____
ROOT
ATOM      1  C   UNL     1       7.083   5.702  -5.595  0.00  0.00    +0.146 A 
ATOM      2  C   UNL     1       7.188   6.319  -4.814  0.00  0.00    +0.101 A 
ATOM      3  C   UNL     1       6.184   5.322  -5.814  0.00  0.00    +0.047 A 
ATOM      4  C   UNL     1       6.395   6.555  -4.253  0.00  0.00    +0.018 A 
ATOM      5  C   UNL     1       5.391   5.559  -5.253  0.00  0.00    +0.004 A 
ATOM      6  C   UNL     1       5.496   6.175  -4.473  0.00  0.00    +0.001 A 
ENDROOT
BRANCH   2   8
ATOM      7  O   UNL     1       8.692   6.216  -3.962  0.00  0.00    -0.245 OA
ATOM      8  C   UNL     1       8.086   6.699  -4.595  0.00  0.00    +0.340 C 
BRANCH   8   9
ATOM      9  O   UNL     1       8.379   7.561  -5.008  0.00  0.00    -0.477 OA
ATOM     10  H   UNL     1       8.391   7.621  -5.625  0.00  0.00    +0.295 HD
ENDBRANCH   8   9
ENDBRANCH   2   8
BRANCH   1  11
ATOM     11  O   UNL     1       7.876   5.466  -6.156  0.00  0.00    -0.425 OA
BRANCH  11  13
ATOM     12  O   UNL     1       7.573   6.091  -7.742  0.00  0.00    -0.251 OA
ATOM     13  C   UNL     1       7.767   5.318  -7.139  0.00  0.00    +0.309 C 
ATOM     14  C   UNL     1       7.852   4.397  -7.518  0.00  0.00    +0.136 C 
ENDBRANCH  11  13
ENDBRANCH   1  11
TORSDOF 4
ENDMDL
MODEL 9
REMARK VINA RESULT:      -3.7      1.767      2.752
REMARK  Name = 2244
REMARK  5 active torsions:
REMARK  status: ('A' for Active; 'I' for Inactive)
REMARK    1  A    between atoms: O_1  and  C_5
REMARK    2  A    between atoms: O_1  and  C_12
REMARK    3  A    between atoms: O_2  and  C_11
REMARK    4  A    between atoms: C_6  and  C_11
REMARK    5  A    between atoms: C_12  and  C_13
REMARK                            x       y       z     vdW  Elec       q    Type
REMARK                         _______ _______ _______ _____ _____    ______ ____
ROOT
ATOM      1  C   UNL     1       9.658   4.189  -9.311  0.00  0.00    +0.146 A 
ATOM      2  C   UNL     1      10.129   4.765  -9.979  0.00  0.00    +0.101 A 
ATOM      3  C   UNL     1       8.704   4.374  -9.075  0.00  0.00    +0.047 A 
ATOM      4  C   UNL     1       9.646   5.527 -10.411  0.00  0.00    +0.018 A 
ATOM      5  C   UNL     1       8.221   5.136  -9.507  0.00  0.00    +0.004 A 
ATOM      6  C   UNL     1       8.692   5.712 -10.175  0.00  0.00    +0.001 A 
ENDROOT
BRANCH   2   8
ATOM      7  O   UNL     1      11.300   4.002 -11.003  0.00  0.00    -0.245 OA
ATOM      8  C   UNL     1      11.083   4.579 -10.215  0.00  0.00    +0.340 C 
BRANCH   8   9
ATOM      9  O   UNL     1      11.819   4.969  -9.663  0.00  0.00    -0.477 OA
ATOM     10  H   UNL     1      11.922   4.759  -9.089  0.00  0.00    +0.295 HD
ENDBRANCH   8   9
ENDBRANCH   2   8
BRANCH   1  11
ATOM     11  O   UNL     1      10.140   3.427  -8.879  0.00  0.00    -0.425 OA
BRANCH  11  13
ATOM     12  O   UNL     1      10.086   3.699  -7.170  0.00  0.00    -0.251 OA
ATOM     13  C   UNL     1       9.880   3.125  -7.962  0.00  0.00    +0.309 C 
ATOM     14  C   UNL     1       9.412   2.250  -7.837  0.00  0.00    +0.136 C 
ENDBRANCH  11  13
ENDBRANCH   1  11
TORSDOF 4
ENDMDL
