MODEL 1
REMARK VINA RESULT:       0.0      0.000      0.000
REMARK  Name = 962
REMARK  0 active torsions:
REMARK  status: ('A' for Active; 'I' for Inactive)
REMARK                            x       y       z     vdW  Elec       q    Type
REMARK                         _______ _______ _______ _____ _____    ______ ____
ROOT
ATOM      1  O   HOH     1     -10.243  -9.401   1.032  0.00  0.00    -0.410 OA
ATOM      2  H   HOH     0     -10.047  -8.840   0.855  0.00  0.00    +0.205 HD
ATOM      3  H   HOH     0      -9.857  -9.784   1.330  0.00  0.00    +0.205 HD
ENDROOT
TORSDOF 0
ENDMDL
MODEL 2
REMARK VINA RESULT:       0.0     13.780     13.780
REMARK  Name = 962
REMARK  0 active torsions:
REMARK  status: ('A' for Active; 'I' for Inactive)
REMARK                            x       y       z     vdW  Elec       q    Type
REMARK                         _______ _______ _______ _____ _____    ______ ____
ROOT
ATOM      1  O   HOH     1       3.414 -10.700   2.330  0.00  0.00    -0.410 OA
ATOM      2  H   HOH     0       3.610 -10.139   2.153  0.00  0.00    +0.205 HD
ATOM      3  H   HOH     0       3.800 -11.083   2.629  0.00  0.00    +0.205 HD
ENDROOT
TORSDOF 0
ENDMDL
MODEL 3
REMARK VINA RESULT:       0.0     19.597     19.597
REMARK  Name = 962
REMARK  0 active torsions:
REMARK  status: ('A' for Active; 'I' for Inactive)
REMARK                            x       y       z     vdW  Elec       q    Type
REMARK                         _______ _______ _______ _____ _____    ______ ____
ROOT
ATOM      1  O   HOH     1       4.842   3.056   2.184  0.00  0.00    -0.410 OA
ATOM      2  H   HOH     0       5.038   3.617   2.007  0.00  0.00    +0.205 HD
ATOM      3  H   HOH     0       5.228   2.673   2.482  0.00  0.00    +0.205 HD
ENDROOT
TORSDOF 0
ENDMDL
MODEL 4
REMARK VINA RESULT:       0.0     18.337     18.337
REMARK  Name = 962
REMARK  0 active torsions:
REMARK  status: ('A' for Active; 'I' for Inactive)
REMARK                            x       y       z     vdW  Elec       q    Type
REMARK                         _______ _______ _______ _____ _____    ______ ____
ROOT
ATOM      1  O   HOH     1       3.724   2.113   3.965  0.00  0.00    -0.410 OA
ATOM      2  H   HOH     0       3.920   2.674   3.788  0.00  0.00    +0.205 HD
ATOM      3  H   HOH     0       4.110   1.730   4.263  0.00  0.00    +0.205 HD
ENDROOT
TORSDOF 0
ENDMDL
MODEL 5
REMARK VINA RESULT:       0.0     16.779     16.779
REMARK  Name = 962
REMARK  0 active torsions:
REMARK  status: ('A' for Active; 'I' for Inactive)
REMARK                            x       y       z     vdW  Elec       q    Type
REMARK                         _______ _______ _______ _____ _____    ______ ____
ROOT
ATOM      1  O   HOH     1       1.773   1.761   4.576  0.00  0.00    -0.410 OA
ATOM      2  H   HOH     0       1.969   2.322   4.399  0.00  0.00    +0.205 HD
ATOM      3  H   HOH     0       2.159   1.378   4.874  0.00  0.00    +0.205 HD
ENDROOT
TORSDOF 0
ENDMDL
MODEL 6
REMARK VINA RESULT:       0.0     15.104     15.104
REMARK  Name = 962
REMARK  0 active torsions:
REMARK  status: ('A' for Active; 'I' for Inactive)
REMARK                            x       y       z     vdW  Elec       q    Type
REMARK                         _______ _______ _______ _____ _____    ______ ____
ROOT
ATOM      1  O   HOH     1       0.329   0.467   5.392  0.00  0.00    -0.410 OA
ATOM      2  H   HOH     0       0.524   1.028   5.214  0.00  0.00    +0.205 HD
ATOM      3  H   HOH     0       0.714   0.084   5.690  0.00  0.00    +0.205 HD
ENDROOT
TORSDOF 0
ENDMDL
MODEL 7
REMARK VINA RESULT:       0.0     14.864     14.864
REMARK  Name = 962
REMARK  0 active torsions:
REMARK  status: ('A' for Active; 'I' for Inactive)
REMARK                            x       y       z     vdW  Elec       q    Type
REMARK                         _______ _______ _______ _____ _____    ______ ____
ROOT
ATOM      1  O   HOH     1       0.444   0.735   3.032  0.00  0.00    -0.410 OA
ATOM      2  H   HOH     0       0.640   1.296   2.854  0.00  0.00    +0.205 HD
ATOM      3  H   HOH     0       0.830   0.352   3.330  0.00  0.00    +0.205 HD
ENDROOT
TORSDOF 0
ENDMDL
MODEL 8
REMARK VINA RESULT:       0.0     14.807     14.807
REMARK  Name = 962
REMARK  0 active torsions:
REMARK  status: ('A' for Active; 'I' for Inactive)
REMARK                            x       y       z     vdW  Elec       q    Type
REMARK                         _______ _______ _______ _____ _____    ______ ____
ROOT
ATOM      1  O   HOH     1      -1.187   2.225   2.471  0.00  0.00    -0.410 OA
ATOM      2  H   HOH     0      -0.991   2.786   2.294  0.00  0.00    +0.205 HD
ATOM      3  H   HOH     0      -0.801   1.842   2.769  0.00  0.00    +0.205 HD
ENDROOT
TORSDOF 0
ENDMDL
MODEL 9
REMARK VINA RESULT:       0.0     16.707     16.707
REMARK  Name = 962
REMARK  0 active torsions:
REMARK  status: ('A' for Active; 'I' for Inactive)
REMARK                            x       y       z     vdW  Elec       q    Type
REMARK                         _______ _______ _______ _____ _____    ______ ____
ROOT
ATOM      1  O   HOH     1       0.093   3.281   4.418  0.00  0.00    -0.410 OA
ATOM      2  H   HOH     0       0.289   3.842   4.241  0.00  0.00    +0.205 HD
ATOM      3  H   HOH     0       0.478   2.898   4.716  0.00  0.00    +0.205 HD
ENDROOT
TORSDOF 0
ENDMDL
