MODEL 1
REMARK VINA RESULT:      -4.5      0.000      0.000
REMARK  Name = 2244
REMARK  5 active torsions:
REMARK  status: ('A' for Active; 'I' for Inactive)
REMARK    1  A    between atoms: O_1  and  C_5
REMARK    2  A    between atoms: O_1  and  C_12
REMARK    3  A    between atoms: O_2  and  C_11
REMARK    4  A    between atoms: C_6  and  C_11
REMARK    5  A    between atoms: C_12  and  C_13
REMARK                            x       y       z     vdW  Elec       q    Type
REMARK                         _______ _______ _______ _____ _____    ______ ____
ROOT
ATOM      1  C   UNL     1       9.324   5.389  -9.935  0.00  0.00    +0.146 A 
ATOM      2  C   UNL     1       8.581   6.044 -10.075  0.00  0.00    +0.101 A 
ATOM      3  C   UNL     1       9.270   4.724  -9.191  0.00  0.00    +0.047 A 
ATOM      4  C   UNL     1       7.785   6.033  -9.470  0.00  0.00    +0.018 A 
ATOM      5  C   UNL     1       8.474   4.713  -8.587  0.00  0.00    +0.004 A 
ATOM      6  C   UNL     1       7.731   5.367  -8.726  0.00  0.00    +0.001 A 
ENDROOT
BRANCH   2   8
ATOM      7  O   UNL     1       8.281   6.477 -11.725  0.00  0.00    -0.245 OA
ATOM      8  C   UNL     1       8.635   6.710 -10.819  0.00  0.00    +0.340 C 
BRANCH   8   9
ATOM      9  O   UNL     1       9.043   7.609 -10.657  0.00  0.00    -0.477 OA
ATOM     10  H   UNL     1       9.625   7.723 -10.839  0.00  0.00    +0.295 HD
ENDBRANCH   8   9
ENDBRANCH   2   8
BRANCH   1  11
ATOM     11  O   UNL     1      10.121   5.401 -10.539  0.00  0.00    -0.425 OA
BRANCH  11  13
ATOM     12  O   UNL     1      11.622   5.046  -9.753  0.00  0.00    -0.251 OA
ATOM     13  C   UNL     1      10.884   4.777 -10.372  0.00  0.00    +0.309 C 
ATOM     14  C   UNL     1      10.910   3.885 -10.823  0.00  0.00    +0.136 C 
ENDBRANCH  11  13
ENDBRANCH   1  11
TORSDOF 4
ENDMDL
MODEL 2
REMARK VINA RESULT:      -4.2      0.913      2.751
REMARK  Name = 2244
REMARK  5 active torsions:
REMARK  status: ('A' for Active; 'I' for Inactive)
REMARK    1  A    between atoms: O_1  and  C_5
REMARK    2  A    between atoms: O_1  and  C_12
REMARK    3  A    between atoms: O_2  and  C_11
REMARK    4  A    between atoms: C_6  and  C_11
REMARK    5  A    between atoms: C_12  and  C_13
REMARK                            x       y       z     vdW  Elec       q    Type
REMARK                         _______ _______ _______ _____ _____    ______ ____
ROOT
ATOM      1  C   UNL     1       9.547   4.970  -9.788  0.00  0.00    +0.146 A 
ATOM      2  C   UNL     1      10.334   4.461  -9.442  0.00  0.00    +0.101 A 
ATOM      3  C   UNL     1       8.698   4.998  -9.261  0.00  0.00    +0.047 A 
ATOM      4  C   UNL     1      10.273   3.979  -8.567  0.00  0.00    +0.018 A 
ATOM      5  C   UNL     1       8.636   4.516  -8.387  0.00  0.00    +0.004 A 
ATOM      6  C   UNL     1       9.424   4.007  -8.040  0.00  0.00    +0.001 A 
ENDROOT
BRANCH   2   8
ATOM      7  O   UNL     1      11.307   3.742 -10.681  0.00  0.00    -0.245 OA
ATOM      8  C   UNL     1      11.183   4.433  -9.969  0.00  0.00    +0.340 C 
BRANCH   8   9
ATOM      9  O   UNL     1      11.908   5.096  -9.785  0.00  0.00    -0.477 OA
ATOM     10  H   UNL     1      12.171   5.121  -9.224  0.00  0.00    +0.295 HD
ENDBRANCH   8   9
ENDBRANCH   2   8
BRANCH   1  11
ATOM     11  O   UNL     1       9.608   5.451 -10.663  0.00  0.00    -0.425 OA
BRANCH  11  13
ATOM     12  O   UNL     1       9.150   7.120 -10.591  0.00  0.00    -0.251 OA
ATOM     13  C   UNL     1       8.960   6.182 -10.878  0.00  0.00    +0.309 C 
ATOM     14  C   UNL     1       8.121   5.973 -11.380  0.00  0.00    +0.136 C 
ENDBRANCH  11  13
ENDBRANCH   1  11
TORSDOF 4
ENDMDL
MODEL 3
REMARK VINA RESULT:      -4.0      1.431      2.775
REMARK  Name = 2244
REMARK  5 active torsions:
REMARK  status: ('A' for Active; 'I' for Inactive)
REMARK    1  A    between atoms: O_1  and  C_5
REMARK    2  A    between atoms: O_1  and  C_12
REMARK    3  A    between atoms: O_2  and  C_11
REMARK    4  A    between atoms: C_6  and  C_11
REMARK    5  A    between atoms: C_12  and  C_13
REMARK                            x       y       z     vdW  Elec       q    Type
REMARK                         _______ _______ _______ _____ _____    ______ ____
ROOT
ATOM      1  C   UNL     1       8.350   5.728  -9.487  0.00  0.00    +0.146 A 
ATOM      2  C   UNL     1       8.882   5.981 -10.295  0.00  0.00    +0.101 A 
ATOM      3  C   UNL     1       8.618   4.935  -8.940  0.00  0.00    +0.047 A 
ATOM      4  C   UNL     1       9.682   5.441 -10.556  0.00  0.00    +0.018 A 
ATOM      5  C   UNL     1       9.419   4.395  -9.201  0.00  0.00    +0.004 A 
ATOM      6  C   UNL     1       9.951   4.648 -10.009  0.00  0.00    +0.001 A 
ENDROOT
BRANCH   2   8
ATOM      7  O   UNL     1       7.939   6.672 -11.573  0.00  0.00    -0.245 OA
ATOM      8  C   UNL     1       8.614   6.774 -10.842  0.00  0.00    +0.340 C 
BRANCH   8   9
ATOM      9  O   UNL     1       9.020   7.669 -10.658  0.00  0.00    -0.477 OA
ATOM     10  H   UNL     1       8.968   7.923 -10.095  0.00  0.00    +0.295 HD
ENDBRANCH   8   9
ENDBRANCH   2   8
BRANCH   1  11
ATOM     11  O   UNL     1       7.550   6.267  -9.226  0.00  0.00    -0.425 OA
BRANCH  11  13
ATOM     12  O   UNL     1       7.417   6.391  -7.504  0.00  0.00    -0.251 OA
ATOM     13  C   UNL     1       7.062   6.060  -8.378  0.00  0.00    +0.309 C 
ATOM     14  C   UNL     1       6.220   5.522  -8.404  0.00  0.00    +0.136 C 
ENDBRANCH  11  13
ENDBRANCH   1  11
TORSDOF 4
ENDMDL
MODEL 4
REMARK VINA RESULT:      -3.9      3.627      4.685
REMARK  Name = 2244
REMARK  5 active torsions:
REMARK  status: ('A' for Active; 'I' for Inactive)
REMARK    1  A    between atoms: O_1  and  C_5
REMARK    2  A    between atoms: O_1  and  C_12
REMARK    3  A    between atoms: O_2  and  C_11
REMARK    4  A    between atoms: C_6  and  C_11
REMARK    5  A    between atoms: C_12  and  C_13
REMARK                            x       y       z     vdW  Elec       q    Type
REMARK                         _______ _______ _______ _____ _____    ______ ____
ROOT
ATOM      1  C   UNL     1       6.752   6.399  -6.946  0.00  0.00    +0.146 A 
ATOM      2  C   UNL     1       6.682   6.710  -5.998  0.00  0.00    +0.101 A 
ATOM      3  C   UNL     1       5.984   6.533  -7.573  0.00  0.00    +0.047 A 
ATOM      4  C   UNL     1       5.846   7.154  -5.677  0.00  0.00    +0.018 A 
ATOM      5  C   UNL     1       5.148   6.977  -7.253  0.00  0.00    +0.004 A 
ATOM      6  C   UNL     1       5.079   7.288  -6.305  0.00  0.00    +0.001 A 
ENDROOT
BRANCH   2   8
ATOM      7  O   UNL     1       7.529   5.724  -4.853  0.00  0.00    -0.245 OA
ATOM      8  C   UNL     1       7.450   6.576  -5.371  0.00  0.00    +0.340 C 
BRANCH   8   9
ATOM      9  O   UNL     1       8.137   7.294  -5.261  0.00  0.00    -0.477 OA
ATOM     10  H   UNL     1       8.063   7.731  -4.827  0.00  0.00    +0.295 HD
ENDBRANCH   8   9
ENDBRANCH   2   8
BRANCH   1  11
ATOM     11  O   UNL     1       7.588   5.955  -7.266  0.00  0.00    -0.425 OA
BRANCH  11  13
ATOM     12  O   UNL     1       7.862   6.213  -8.957  0.00  0.00    -0.251 OA
ATOM     13  C   UNL     1       7.639   5.599  -8.200  0.00  0.00    +0.309 C 
ATOM     14  C   UNL     1       7.467   4.630  -8.376  0.00  0.00    +0.136 C 
ENDBRANCH  11  13
ENDBRANCH   1  11
TORSDOF 4
ENDMDL
MODEL 5
REMARK VINA RESULT:      -3.8      1.133      3.287
REMARK  Name = 2244
REMARK  5 active torsions:
REMARK  status: ('A' for Active; 'I' for Inactive)
REMARK    1  A    between atoms: O_1  and  C_5
REMARK    2  A    between atoms: O_1  and  C_12
REMARK    3  A    between atoms: O_2  and  C_11
REMARK    4  A    between atoms: C_6  and  C_11
REMARK    5  A    between atoms: C_12  and  C_13
REMARK                            x       y       z     vdW  Elec       q    Type
REMARK                         _______ _______ _______ _____ _____    ______ ____
ROOT
ATOM      1  C   UNL     1       9.647   4.832 -10.614  0.00  0.00    +0.146 A 
ATOM      2  C   UNL     1      10.448   4.288 -10.364  0.00  0.00    +0.101 A 
ATOM      3  C   UNL     1       8.998   4.484 -11.291  0.00  0.00    +0.047 A 
ATOM      4  C   UNL     1      10.600   3.396 -10.790  0.00  0.00    +0.018 A 
ATOM      5  C   UNL     1       9.150   3.592 -11.717  0.00  0.00    +0.004 A 
ATOM      6  C   UNL     1       9.951   3.048 -11.467  0.00  0.00    +0.001 A 
ENDROOT
BRANCH   2   8
ATOM      7  O   UNL     1      11.898   5.155  -9.983  0.00  0.00    -0.245 OA
ATOM      8  C   UNL     1      11.096   4.636  -9.687  0.00  0.00    +0.340 C 
BRANCH   8   9
ATOM      9  O   UNL     1      10.944   4.465  -8.714  0.00  0.00    -0.477 OA
ATOM     10  H   UNL     1      10.597   4.857  -8.381  0.00  0.00    +0.295 HD
ENDBRANCH   8   9
ENDBRANCH   2   8
BRANCH   1  11
ATOM     11  O   UNL     1       9.494   5.723 -10.188  0.00  0.00    -0.425 OA
BRANCH  11  13
ATOM     12  O   UNL     1       9.101   6.960 -11.335  0.00  0.00    -0.251 OA
ATOM     13  C   UNL     1       8.831   6.359 -10.582  0.00  0.00    +0.309 C 
ATOM     14  C   UNL     1       7.898   6.395 -10.223  0.00  0.00    +0.136 C 
ENDBRANCH  11  13
ENDBRANCH   1  11
TORSDOF 4
ENDMDL
MODEL 6
REMARK VINA RESULT:      -3.8      1.603      2.414
REMARK  Name = 2244
REMARK  5 active torsions:
REMARK  status: ('A' for Active; 'I' for Inactive)
REMARK    1  A    between atoms: O_1  and  C_5
REMARK    2  A    between atoms: O_1  and  C_12
REMARK    3  A    between atoms: O_2  and  C_11
REMARK    4  A    between atoms: C_6  and  C_11
REMARK    5  A    between atoms: C_12  and  C_13
REMARK                            x       y       z     vdW  Elec       q    Type
REMARK                         _______ _______ _______ _____ _____    ______ ____
ROOT
ATOM      1  C   UNL     1       9.408   4.867  -9.388  0.00  0.00    +0.146 A 
ATOM      2  C   UNL     1       8.655   4.866  -8.730  0.00  0.00    +0.101 A 
ATOM      3  C   UNL     1       9.347   5.423 -10.216  0.00  0.00    +0.047 A 
ATOM      4  C   UNL     1       7.841   5.421  -8.901  0.00  0.00    +0.018 A 
ATOM      5  C   UNL     1       8.533   5.979 -10.387  0.00  0.00    +0.004 A 
ATOM      6  C   UNL     1       7.780   5.977  -9.729  0.00  0.00    +0.001 A 
ENDROOT
BRANCH   2   8
ATOM      7  O   UNL     1       8.396   3.362  -7.910  0.00  0.00    -0.245 OA
ATOM      8  C   UNL     1       8.715   4.310  -7.901  0.00  0.00    +0.340 C 
BRANCH   8   9
ATOM      9  O   UNL     1       9.096   4.701  -7.063  0.00  0.00    -0.477 OA
ATOM     10  H   UNL     1       9.039   5.308  -6.951  0.00  0.00    +0.295 HD
ENDBRANCH   8   9
ENDBRANCH   2   8
BRANCH   1  11
ATOM     11  O   UNL     1      10.222   4.312  -9.217  0.00  0.00    -0.425 OA
BRANCH  11  13
ATOM     12  O   UNL     1      11.654   5.092  -9.800  0.00  0.00    -0.251 OA
ATOM     13  C   UNL     1      10.992   4.344  -9.854  0.00  0.00    +0.309 C 
ATOM     14  C   UNL     1      11.100   3.630 -10.545  0.00  0.00    +0.136 C 
ENDBRANCH  11  13
ENDBRANCH   1  11
TORSDOF 4
ENDMDL
MODEL 7
REMARK VINA RESULT:      -3.8      4.385      5.439
REMARK  Name = 2244
REMARK  5 active torsions:
REMARK  status: ('A' for Active; 'I' for Inactive)
REMARK    1  A    between atoms: O_1  and  C_5
REMARK    2  A    between atoms: O_1  and  C_12
REMARK    3  A    between atoms: O_2  and  C_11
REMARK    4  A    between atoms: C_6  and  C_11
REMARK    5  A    between atoms: C_12  and  C_13
REMARK                            x       y       z     vdW  Elec       q    Type
REMARK                         _______ _______ _______ _____ _____    ______ ____
ROOT
ATOM      1  C   UNL     1       7.122   5.764  -5.455  0.00  0.00    +0.146 A 
ATOM      2  C   UNL     1       7.285   6.355  -4.665  0.00  0.00    +0.101 A 
ATOM      3  C   UNL     1       6.212   5.380  -5.613  0.00  0.00    +0.047 A 
ATOM      4  C   UNL     1       6.539   6.562  -4.033  0.00  0.00    +0.018 A 
ATOM      5  C   UNL     1       5.465   5.587  -4.981  0.00  0.00    +0.004 A 
ATOM      6  C   UNL     1       5.629   6.178  -4.191  0.00  0.00    +0.001 A 
ENDROOT
BRANCH   2   8
ATOM      7  O   UNL     1       8.853   6.247  -3.936  0.00  0.00    -0.245 OA
ATOM      8  C   UNL     1       8.195   6.738  -4.507  0.00  0.00    +0.340 C 
BRANCH   8   9
ATOM      9  O   UNL     1       8.447   7.613  -4.920  0.00  0.00    -0.477 OA
ATOM     10  H   UNL     1       8.780   8.024  -4.597  0.00  0.00    +0.295 HD
ENDBRANCH   8   9
ENDBRANCH   2   8
BRANCH   1  11
ATOM     11  O   UNL     1       7.868   5.556  -6.087  0.00  0.00    -0.425 OA
BRANCH  11  13
ATOM     12  O   UNL     1       7.445   6.227  -7.627  0.00  0.00    -0.251 OA
ATOM     13  C   UNL     1       7.680   5.436  -7.062  0.00  0.00    +0.309 C 
ATOM     14  C   UNL     1       7.725   4.525  -7.471  0.00  0.00    +0.136 C 
ENDBRANCH  11  13
ENDBRANCH   1  11
TORSDOF 4
ENDMDL
MODEL 8
REMARK VINA RESULT:      -3.7      6.347      7.489
REMARK  Name = 2244
REMARK  5 active torsions:
REMARK  status: ('A' for Active; 'I' for Inactive)
REMARK    1  A    between atoms: O_1  and  C_5
REMARK    2  A    between atoms: O_1  and  C_12
REMARK    3  A    between atoms: O_2  and  C_11
REMARK    4  A    between atoms: C_6  and  C_11
REMARK    5  A    between atoms: C_12  and  C_13
REMARK                            x       y       z     vdW  Elec       q    Type
REMARK                         _______ _______ _______ _____ _____    ______ ____
ROOT
ATOM      1  C   UNL     1       6.878   6.795  -3.369  0.00  0.00    +0.146 A 
ATOM      2  C   UNL     1       7.242   6.584  -4.276  0.00  0.00    +0.101 A 
ATOM      3  C   UNL     1       5.911   6.637  -3.168  0.00  0.00    +0.047 A 
ATOM      4  C   UNL     1       6.638   6.215  -4.983  0.00  0.00    +0.018 A 
ATOM      5  C   UNL     1       5.308   6.268  -3.875  0.00  0.00    +0.004 A 
ATOM      6  C   UNL     1       5.671   6.056  -4.782  0.00  0.00    +0.001 A 
ENDROOT
BRANCH   2   8
ATOM      7  O   UNL     1       8.895   6.076  -4.185  0.00  0.00    -0.245 OA
ATOM      8  C   UNL     1       8.208   6.742  -4.477  0.00  0.00    +0.340 C 
BRANCH   8   9
ATOM      9  O   UNL     1       8.489   7.566  -4.969  0.00  0.00    -0.477 OA
ATOM     10  H   UNL     1       9.081   7.641  -5.137  0.00  0.00    +0.295 HD
ENDBRANCH   8   9
ENDBRANCH   2   8
BRANCH   1  11
ATOM     11  O   UNL     1       7.482   7.165  -2.662  0.00  0.00    -0.425 OA
BRANCH  11  13
ATOM     12  O   UNL     1       7.269   6.239  -1.213  0.00  0.00    -0.251 OA
ATOM     13  C   UNL     1       7.215   7.112  -1.699  0.00  0.00    +0.309 C 
ATOM     14  C   UNL     1       6.896   7.931  -1.223  0.00  0.00    +0.136 C 
ENDBRANCH  11  13
ENDBRANCH   1  11
TORSDOF 4
ENDMDL
MODEL 9
REMARK VINA RESULT:      -3.7      5.949      7.084
REMARK  Name = 2244
REMARK  5 active torsions:
REMARK  status: ('A' for Active; 'I' for Inactive)
REMARK    1  A    between atoms: O_1  and  C_5
REMARK    2  A    between atoms: O_1  and  C_12
REMARK    3  A    between atoms: O_2  and  C_11
REMARK    4  A    between atoms: C_6  and  C_11
REMARK    5  A    between atoms: C_12  and  C_13
REMARK                            x       y       z     vdW  Elec       q    Type
REMARK                         _______ _______ _______ _____ _____    ______ ____
ROOT
ATOM      1  C   UNL     1       7.115   6.187  -3.716  0.00  0.00    +0.146 A 
ATOM      2  C   UNL     1       7.764   6.578  -4.368  0.00  0.00    +0.101 A 
ATOM      3  C   UNL     1       6.196   5.933  -4.018  0.00  0.00    +0.047 A 
ATOM      4  C   UNL     1       7.495   6.716  -5.321  0.00  0.00    +0.018 A 
ATOM      5  C   UNL     1       5.926   6.071  -4.971  0.00  0.00    +0.004 A 
ATOM      6  C   UNL     1       6.576   6.462  -5.623  0.00  0.00    +0.001 A 
ENDROOT
BRANCH   2   8
ATOM      7  O   UNL     1       8.842   7.724  -3.643  0.00  0.00    -0.245 OA
ATOM      8  C   UNL     1       8.683   6.832  -4.066  0.00  0.00    +0.340 C 
BRANCH   8   9
ATOM      9  O   UNL     1       9.444   6.194  -4.188  0.00  0.00    -0.477 OA
ATOM     10  H   UNL     1       9.690   6.109  -4.750  0.00  0.00    +0.295 HD
ENDBRANCH   8   9
ENDBRANCH   2   8
BRANCH   1  11
ATOM     11  O   UNL     1       7.384   6.049  -2.763  0.00  0.00    -0.425 OA
BRANCH  11  13
ATOM     12  O   UNL     1       7.455   4.350  -2.437  0.00  0.00    -0.251 OA
ATOM     13  C   UNL     1       7.055   5.249  -2.262  0.00  0.00    +0.309 C 
ATOM     14  C   UNL     1       6.325   5.348  -1.585  0.00  0.00    +0.136 C 
ENDBRANCH  11  13
ENDBRANCH   1  11
TORSDOF 4
ENDMDL
