MODEL 1
REMARK VINA RESULT:      -8.4      0.000      0.000
REMARK  Name = 16142
REMARK  7 active torsions:
REMARK  status: ('A' for Active; 'I' for Inactive)
REMARK    1  A    between atoms: O_1  and  C_10
REMARK    2  A    between atoms: O_7  and  C_30
REMARK    3  A    between atoms: O_8  and  C_34
REMARK    4  A    between atoms: C_13  and  C_25
REMARK    5  A    between atoms: C_14  and  C_28
REMARK    6  A    between atoms: C_18  and  C_29
REMARK    7  A    between atoms: C_37  and  C_38
REMARK                            x       y       z     vdW  Elec       q    Type
REMARK                         _______ _______ _______ _____ _____    ______ ____
ROOT
ATOM      1  O   UNL     1       2.170  -0.587  -5.003  0.00  0.00    -0.337 OA
ATOM      2  O   UNL     1       0.038  -0.366  -4.782  0.00  0.00    -0.341 OA
ATOM      3  O   UNL     1       0.036  -1.501  -3.240  0.00  0.00    -0.343 OA
ATOM      4  C   UNL     1       1.982   2.620  -9.312  0.00  0.00    +0.075 C 
ATOM      5  C   UNL     1       1.501   2.130  -8.529  0.00  0.00    +0.025 C 
ATOM      6  C   UNL     1       2.014   1.563  -7.885  0.00  0.00    +0.008 C 
ATOM      7  C   UNL     1       3.012   2.518  -9.426  0.00  0.00    +0.004 C 
ATOM      8  C   UNL     1       1.539   1.099  -7.138  0.00  0.00    +0.034 C 
ATOM      9  C   UNL     1       0.549   1.201  -7.035  0.00  0.00    +0.005 C 
ATOM     10  C   UNL     1       3.045   1.447  -7.979  0.00  0.00    +0.005 C 
ATOM     11  C   UNL     1       3.548   1.928  -8.755  0.00  0.00    +0.010 C 
ATOM     12  C   UNL     1       3.297   3.074 -10.250  0.00  0.00    +0.027 C 
ATOM     13  C   UNL     1       0.511   2.232  -8.426  0.00  0.00    +0.007 C 
ATOM     14  C   UNL     1       1.638   3.239 -10.068  0.00  0.00    +0.036 C 
ATOM     15  C   UNL     1       0.036   1.768  -7.679  0.00  0.00    +0.005 C 
ATOM     16  C   UNL     1       2.450   3.519 -10.647  0.00  0.00    +0.011 C 
ATOM     17  C   UNL     1       2.087   0.512  -6.475  0.00  0.00    +0.049 C 
ATOM     18  C   UNL     1       0.040   0.723  -6.261  0.00  0.00    +0.038 C 
ATOM     19  C   UNL     1       4.002   2.420  -9.534  0.00  0.00    +0.014 C 
ATOM     20  C   UNL     1       1.599   0.025  -5.694  0.00  0.00    +0.152 C 
ATOM     21  C   UNL     1       0.569   0.131  -5.587  0.00  0.00    +0.151 C 
ATOM     22  C   UNL     1       1.662  -1.094  -4.190  0.00  0.00    +0.247 C 
ATOM     23  C   UNL     1       0.588  -0.983  -4.079  0.00  0.00    +0.314 C 
ATOM     24  C   UNL     1       2.257  -1.731  -3.471  0.00  0.00    +0.181 C 
ATOM     25  C   UNL     1       1.728  -2.259  -2.624  0.00  0.00    +0.068 C 
ATOM     26  C   UNL     1       0.609  -2.143  -2.508  0.00  0.00    +0.121 C 
ATOM     27  C   UNL     1       0.130  -2.607  -1.762  0.00  0.00    +0.038 C 
ENDROOT
BRANCH  12  30
ATOM     28  O   UNL     1       5.598   2.896 -11.419  0.00  0.00    -0.457 OA
ATOM     29  O   UNL     1       6.547   4.290 -10.842  0.00  0.00    -0.246 OA
ATOM     30  C   UNL     1       4.228   3.167 -10.604  0.00  0.00    -0.022 C 
ATOM     31  C   UNL     1       4.676   2.550 -11.251  0.00  0.00    +0.264 C 
ATOM     32  C   UNL     1       4.874   3.894 -10.371  0.00  0.00    +0.094 C 
ATOM     33  C   UNL     1       5.722   3.726 -10.876  0.00  0.00    +0.332 C 
ENDBRANCH  12  30
BRANCH   4  34
ATOM     34  O   UNL     1       0.993   2.717  -9.202  0.00  0.00    -0.388 OA
ATOM     35  H   UNL     1       0.757   3.239  -8.963  0.00  0.00    +0.210 HD
ENDBRANCH   4  34
BRANCH   8  37
ATOM     36  O   UNL     1       2.963   1.131  -6.152  0.00  0.00    -0.300 OA
ATOM     37  C   UNL     1       2.475   0.799  -6.959  0.00  0.00    +0.230 C 
ENDBRANCH   8  37
BRANCH  22  38
ATOM     38  O   UNL     1       2.651  -1.196  -4.293  0.00  0.00    -0.359 OA
ATOM     39  H   UNL     1       3.035  -0.786  -4.030  0.00  0.00    +0.213 HD
ENDBRANCH  22  38
BRANCH  24  40
ATOM     40  O   UNL     1       3.246  -1.826  -3.583  0.00  0.00    -0.386 OA
ATOM     41  H   UNL     1       3.616  -1.336  -3.499  0.00  0.00    +0.210 HD
ENDBRANCH  24  40
TORSDOF 5
ENDMDL
MODEL 2
REMARK VINA RESULT:      -8.1     10.012     13.919
REMARK  Name = 16142
REMARK  7 active torsions:
REMARK  status: ('A' for Active; 'I' for Inactive)
REMARK    1  A    between atoms: O_1  and  C_10
REMARK    2  A    between atoms: O_7  and  C_30
REMARK    3  A    between atoms: O_8  and  C_34
REMARK    4  A    between atoms: C_13  and  C_25
REMARK    5  A    between atoms: C_14  and  C_28
REMARK    6  A    between atoms: C_18  and  C_29
REMARK    7  A    between atoms: C_37  and  C_38
REMARK                            x       y       z     vdW  Elec       q    Type
REMARK                         _______ _______ _______ _____ _____    ______ ____
ROOT
ATOM      1  O   UNL     1      -3.677  -6.057   5.034  0.00  0.00    -0.337 OA
ATOM      2  O   UNL     1      -3.735  -5.600   7.139  0.00  0.00    -0.341 OA
ATOM      3  O   UNL     1      -3.778  -7.461   7.587  0.00  0.00    -0.343 OA
ATOM      4  C   UNL     1      -3.560  -0.791   3.968  0.00  0.00    +0.075 C 
ATOM      5  C   UNL     1      -3.594  -1.573   4.655  0.00  0.00    +0.025 C 
ATOM      6  C   UNL     1      -3.600  -2.525   4.349  0.00  0.00    +0.008 C 
ATOM      7  C   UNL     1      -3.532  -1.004   2.948  0.00  0.00    +0.004 C 
ATOM      8  C   UNL     1      -3.632  -3.266   5.021  0.00  0.00    +0.034 C 
ATOM      9  C   UNL     1      -3.659  -3.054   5.998  0.00  0.00    +0.005 C 
ATOM     10  C   UNL     1      -3.572  -2.762   3.335  0.00  0.00    +0.005 C 
ATOM     11  C   UNL     1      -3.538  -1.996   2.630  0.00  0.00    +0.010 C 
ATOM     12  C   UNL     1      -3.502  -0.105   2.437  0.00  0.00    +0.027 C 
ATOM     13  C   UNL     1      -3.621  -1.361   5.632  0.00  0.00    +0.007 C 
ATOM     14  C   UNL     1      -3.548   0.239   4.078  0.00  0.00    +0.036 C 
ATOM     15  C   UNL     1      -3.654  -2.102   6.303  0.00  0.00    +0.005 C 
ATOM     16  C   UNL     1      -3.512   0.662   3.133  0.00  0.00    +0.011 C 
ATOM     17  C   UNL     1      -3.637  -4.252   4.687  0.00  0.00    +0.049 C 
ATOM     18  C   UNL     1      -3.693  -3.814   6.709  0.00  0.00    +0.038 C 
ATOM     19  C   UNL     1      -3.505  -1.209   1.969  0.00  0.00    +0.014 C 
ATOM     20  C   UNL     1      -3.671  -5.029   5.381  0.00  0.00    +0.152 C 
ATOM     21  C   UNL     1      -3.699  -4.809   6.398  0.00  0.00    +0.151 C 
ATOM     22  C   UNL     1      -3.712  -6.866   5.756  0.00  0.00    +0.247 C 
ATOM     23  C   UNL     1      -3.741  -6.636   6.816  0.00  0.00    +0.314 C 
ATOM     24  C   UNL     1      -3.718  -7.937   5.394  0.00  0.00    +0.181 C 
ATOM     25  C   UNL     1      -3.754  -8.780   6.146  0.00  0.00    +0.068 C 
ATOM     26  C   UNL     1      -3.785  -8.540   7.251  0.00  0.00    +0.121 C 
ATOM     27  C   UNL     1      -3.817  -9.278   7.925  0.00  0.00    +0.038 C 
ENDROOT
BRANCH  12  30
ATOM     28  O   UNL     1      -2.940   0.041  -0.084  0.00  0.00    -0.457 OA
ATOM     29  O   UNL     1      -4.443   0.559  -0.889  0.00  0.00    -0.246 OA
ATOM     30  C   UNL     1      -3.470   0.006   1.444  0.00  0.00    -0.022 C 
ATOM     31  C   UNL     1      -2.672  -0.148   0.860  0.00  0.00    +0.264 C 
ATOM     32  C   UNL     1      -4.230   0.289   0.860  0.00  0.00    +0.094 C 
ATOM     33  C   UNL     1      -3.902   0.311  -0.085  0.00  0.00    +0.332 C 
ENDBRANCH  12  30
BRANCH   4  34
ATOM     34  O   UNL     1      -3.588  -0.587   4.946  0.00  0.00    -0.388 OA
ATOM     35  H   UNL     1      -4.133  -0.513   5.232  0.00  0.00    +0.210 HD
ENDBRANCH   4  34
BRANCH   8  37
ATOM     36  O   UNL     1      -2.797  -4.321   3.930  0.00  0.00    -0.300 OA
ATOM     37  C   UNL     1      -3.614  -3.799   4.176  0.00  0.00    +0.230 C 
ENDBRANCH   8  37
BRANCH  22  38
ATOM     38  O   UNL     1      -3.685  -7.078   4.779  0.00  0.00    -0.359 OA
ATOM     39  H   UNL     1      -3.951  -7.596   4.566  0.00  0.00    +0.213 HD
ENDBRANCH  22  38
BRANCH  24  40
ATOM     40  O   UNL     1      -3.690  -8.137   4.415  0.00  0.00    -0.386 OA
ATOM     41  H   UNL     1      -3.591  -7.680   4.008  0.00  0.00    +0.210 HD
ENDBRANCH  24  40
TORSDOF 5
ENDMDL
MODEL 3
REMARK VINA RESULT:      -7.9      5.443     10.407
REMARK  Name = 16142
REMARK  7 active torsions:
REMARK  status: ('A' for Active; 'I' for Inactive)
REMARK    1  A    between atoms: O_1  and  C_10
REMARK    2  A    between atoms: O_7  and  C_30
REMARK    3  A    between atoms: O_8  and  C_34
REMARK    4  A    between atoms: C_13  and  C_25
REMARK    5  A    between atoms: C_14  and  C_28
REMARK    6  A    between atoms: C_18  and  C_29
REMARK    7  A    between atoms: C_37  and  C_38
REMARK                            x       y       z     vdW  Elec       q    Type
REMARK                         _______ _______ _______ _____ _____    ______ ____
ROOT
ATOM      1  O   UNL     1       1.305  -1.970  -2.587  0.00  0.00    -0.337 OA
ATOM      2  O   UNL     1       1.807  -4.060  -2.433  0.00  0.00    -0.341 OA
ATOM      3  O   UNL     1       3.065  -3.910  -3.868  0.00  0.00    -0.343 OA
ATOM      4  C   UNL     1      -2.181  -2.582   1.457  0.00  0.00    +0.075 C 
ATOM      5  C   UNL     1      -1.469  -2.981   0.809  0.00  0.00    +0.025 C 
ATOM      6  C   UNL     1      -1.022  -2.409   0.123  0.00  0.00    +0.008 C 
ATOM      7  C   UNL     1      -2.429  -1.572   1.389  0.00  0.00    +0.004 C 
ATOM      8  C   UNL     1      -0.341  -2.806  -0.493  0.00  0.00    +0.034 C 
ATOM      9  C   UNL     1      -0.108  -3.776  -0.421  0.00  0.00    +0.005 C 
ATOM     10  C   UNL     1      -1.254  -1.397   0.036  0.00  0.00    +0.005 C 
ATOM     11  C   UNL     1      -1.962  -0.976   0.673  0.00  0.00    +0.010 C 
ATOM     12  C   UNL     1      -3.144  -1.372   2.109  0.00  0.00    +0.027 C 
ATOM     13  C   UNL     1      -1.236  -3.951   0.881  0.00  0.00    +0.007 C 
ATOM     14  C   UNL     1      -2.746  -2.997   2.220  0.00  0.00    +0.036 C 
ATOM     15  C   UNL     1      -0.556  -4.348   0.266  0.00  0.00    +0.005 C 
ATOM     16  C   UNL     1      -3.340  -2.250   2.622  0.00  0.00    +0.011 C 
ATOM     17  C   UNL     1       0.117  -2.197  -1.203  0.00  0.00    +0.049 C 
ATOM     18  C   UNL     1       0.600  -4.204  -1.055  0.00  0.00    +0.038 C 
ATOM     19  C   UNL     1      -2.666  -0.603   1.323  0.00  0.00    +0.014 C 
ATOM     20  C   UNL     1       0.828  -2.604  -1.847  0.00  0.00    +0.152 C 
ATOM     21  C   UNL     1       1.071  -3.614  -1.773  0.00  0.00    +0.151 C 
ATOM     22  C   UNL     1       2.045  -2.393  -3.258  0.00  0.00    +0.247 C 
ATOM     23  C   UNL     1       2.298  -3.446  -3.180  0.00  0.00    +0.314 C 
ATOM     24  C   UNL     1       2.542  -1.733  -4.029  0.00  0.00    +0.181 C 
ATOM     25  C   UNL     1       3.313  -2.174  -4.728  0.00  0.00    +0.068 C 
ATOM     26  C   UNL     1       3.576  -3.271  -4.647  0.00  0.00    +0.121 C 
ATOM     27  C   UNL     1       4.256  -3.671  -5.261  0.00  0.00    +0.038 C 
ENDROOT
BRANCH  12  30
ATOM     28  O   UNL     1      -3.942   0.943   2.945  0.00  0.00    -0.457 OA
ATOM     29  O   UNL     1      -5.213   1.460   1.808  0.00  0.00    -0.246 OA
ATOM     30  C   UNL     1      -3.573  -0.485   2.280  0.00  0.00    -0.022 C 
ATOM     31  C   UNL     1      -3.354   0.139   3.031  0.00  0.00    +0.264 C 
ATOM     32  C   UNL     1      -4.296  -0.066   1.731  0.00  0.00    +0.094 C 
ATOM     33  C   UNL     1      -4.524   0.817   2.142  0.00  0.00    +0.332 C 
ENDBRANCH  12  30
BRANCH   4  34
ATOM     34  O   UNL     1      -1.943  -3.551   1.523  0.00  0.00    -0.388 OA
ATOM     35  H   UNL     1      -1.491  -3.784   1.167  0.00  0.00    +0.210 HD
ENDBRANCH   4  34
BRANCH   8  37
ATOM     36  O   UNL     1      -0.687  -1.642  -1.728  0.00  0.00    -0.300 OA
ATOM     37  C   UNL     1      -0.336  -1.861  -0.817  0.00  0.00    +0.230 C 
ENDBRANCH   8  37
BRANCH  22  38
ATOM     38  O   UNL     1       1.812  -1.423  -3.330  0.00  0.00    -0.359 OA
ATOM     39  H   UNL     1       2.158  -0.999  -3.039  0.00  0.00    +0.213 HD
ENDBRANCH  22  38
BRANCH  24  40
ATOM     40  O   UNL     1       2.301  -0.764  -4.092  0.00  0.00    -0.386 OA
ATOM     41  H   UNL     1       1.977  -0.556  -4.577  0.00  0.00    +0.210 HD
ENDBRANCH  24  40
TORSDOF 5
ENDMDL
MODEL 4
REMARK VINA RESULT:      -7.7      3.490      7.073
REMARK  Name = 16142
REMARK  7 active torsions:
REMARK  status: ('A' for Active; 'I' for Inactive)
REMARK    1  A    between atoms: O_1  and  C_10
REMARK    2  A    between atoms: O_7  and  C_30
REMARK    3  A    between atoms: O_8  and  C_34
REMARK    4  A    between atoms: C_13  and  C_25
REMARK    5  A    between atoms: C_14  and  C_28
REMARK    6  A    between atoms: C_18  and  C_29
REMARK    7  A    between atoms: C_37  and  C_38
REMARK                            x       y       z     vdW  Elec       q    Type
REMARK                         _______ _______ _______ _____ _____    ______ ____
ROOT
ATOM      1  O   UNL     1       7.297   3.769  -7.298  0.00  0.00    -0.337 OA
ATOM      2  O   UNL     1       8.344   4.520  -9.025  0.00  0.00    -0.341 OA
ATOM      3  O   UNL     1       9.929   4.812  -7.992  0.00  0.00    -0.343 OA
ATOM      4  C   UNL     1       2.942   3.016 -10.356  0.00  0.00    +0.075 C 
ATOM      5  C   UNL     1       3.932   3.324 -10.254  0.00  0.00    +0.025 C 
ATOM      6  C   UNL     1       4.396   3.275  -9.369  0.00  0.00    +0.008 C 
ATOM      7  C   UNL     1       2.429   2.652  -9.526  0.00  0.00    +0.004 C 
ATOM      8  C   UNL     1       5.347   3.575  -9.286  0.00  0.00    +0.034 C 
ATOM      9  C   UNL     1       5.833   3.923 -10.087  0.00  0.00    +0.005 C 
ATOM     10  C   UNL     1       3.903   2.915  -8.525  0.00  0.00    +0.005 C 
ATOM     11  C   UNL     1       2.913   2.601  -8.604  0.00  0.00    +0.010 C 
ATOM     12  C   UNL     1       1.472   2.401  -9.829  0.00  0.00    +0.027 C 
ATOM     13  C   UNL     1       4.419   3.672 -11.055  0.00  0.00    +0.007 C 
ATOM     14  C   UNL     1       2.298   2.986 -11.166  0.00  0.00    +0.036 C 
ATOM     15  C   UNL     1       5.369   3.972 -10.972  0.00  0.00    +0.005 C 
ATOM     16  C   UNL     1       1.391   2.607 -10.841  0.00  0.00    +0.011 C 
ATOM     17  C   UNL     1       5.817   3.518  -8.359  0.00  0.00    +0.049 C 
ATOM     18  C   UNL     1       6.823   4.239 -10.016  0.00  0.00    +0.038 C 
ATOM     19  C   UNL     1       1.937   2.302  -8.728  0.00  0.00    +0.014 C 
ATOM     20  C   UNL     1       6.807   3.828  -8.264  0.00  0.00    +0.152 C 
ATOM     21  C   UNL     1       7.314   4.191  -9.098  0.00  0.00    +0.151 C 
ATOM     22  C   UNL     1       8.328   4.092  -7.199  0.00  0.00    +0.247 C 
ATOM     23  C   UNL     1       8.855   4.470  -8.069  0.00  0.00    +0.314 C 
ATOM     24  C   UNL     1       8.838   4.031  -6.192  0.00  0.00    +0.181 C 
ATOM     25  C   UNL     1       9.912   4.367  -6.089  0.00  0.00    +0.068 C 
ATOM     26  C   UNL     1      10.461   4.761  -6.996  0.00  0.00    +0.121 C 
ATOM     27  C   UNL     1      11.412   5.061  -6.916  0.00  0.00    +0.038 C 
ENDROOT
BRANCH  12  30
ATOM     28  O   UNL     1      -0.473   1.905  -8.198  0.00  0.00    -0.457 OA
ATOM     29  O   UNL     1      -0.691   0.136  -8.222  0.00  0.00    -0.246 OA
ATOM     30  C   UNL     1       0.751   2.024  -9.248  0.00  0.00    -0.022 C 
ATOM     31  C   UNL     1       0.141   2.549  -8.654  0.00  0.00    +0.264 C 
ATOM     32  C   UNL     1       0.514   1.057  -9.159  0.00  0.00    +0.094 C 
ATOM     33  C   UNL     1      -0.243   0.983  -8.509  0.00  0.00    +0.332 C 
ENDBRANCH  12  30
BRANCH   4  34
ATOM     34  O   UNL     1       3.435   3.365 -11.153  0.00  0.00    -0.388 OA
ATOM     35  H   UNL     1       3.298   3.154 -11.720  0.00  0.00    +0.210 HD
ENDBRANCH   4  34
BRANCH   8  37
ATOM     36  O   UNL     1       5.141   3.984  -7.616  0.00  0.00    -0.300 OA
ATOM     37  C   UNL     1       5.170   3.297  -8.342  0.00  0.00    +0.230 C 
ENDBRANCH   8  37
BRANCH  22  38
ATOM     38  O   UNL     1       7.841   3.744  -6.398  0.00  0.00    -0.359 OA
ATOM     39  H   UNL     1       7.677   3.146  -6.370  0.00  0.00    +0.213 HD
ENDBRANCH  22  38
BRANCH  24  40
ATOM     40  O   UNL     1       8.342   3.680  -5.398  0.00  0.00    -0.386 OA
ATOM     41  H   UNL     1       8.646   3.562  -4.870  0.00  0.00    +0.210 HD
ENDBRANCH  24  40
TORSDOF 5
ENDMDL
MODEL 5
REMARK VINA RESULT:      -7.6      9.987     15.333
REMARK  Name = 16142
REMARK  7 active torsions:
REMARK  status: ('A' for Active; 'I' for Inactive)
REMARK    1  A    between atoms: O_1  and  C_10
REMARK    2  A    between atoms: O_7  and  C_30
REMARK    3  A    between atoms: O_8  and  C_34
REMARK    4  A    between atoms: C_13  and  C_25
REMARK    5  A    between atoms: C_14  and  C_28
REMARK    6  A    between atoms: C_18  and  C_29
REMARK    7  A    between atoms: C_37  and  C_38
REMARK                            x       y       z     vdW  Elec       q    Type
REMARK                         _______ _______ _______ _____ _____    ______ ____
ROOT
ATOM      1  O   UNL     1      -3.930  -1.503   2.902  0.00  0.00    -0.337 OA
ATOM      2  O   UNL     1      -2.496  -1.671   1.302  0.00  0.00    -0.341 OA
ATOM      3  O   UNL     1      -3.051   0.008   0.568  0.00  0.00    -0.343 OA
ATOM      4  C   UNL     1      -2.239  -6.232   4.815  0.00  0.00    +0.075 C 
ATOM      5  C   UNL     1      -2.181  -5.471   4.106  0.00  0.00    +0.025 C 
ATOM      6  C   UNL     1      -2.778  -4.671   4.161  0.00  0.00    +0.008 C 
ATOM      7  C   UNL     1      -2.930  -6.158   5.592  0.00  0.00    +0.004 C 
ATOM      8  C   UNL     1      -2.710  -3.949   3.473  0.00  0.00    +0.034 C 
ATOM      9  C   UNL     1      -2.045  -4.026   2.730  0.00  0.00    +0.005 C 
ATOM     10  C   UNL     1      -3.476  -4.576   4.928  0.00  0.00    +0.005 C 
ATOM     11  C   UNL     1      -3.553  -5.325   5.648  0.00  0.00    +0.010 C 
ATOM     12  C   UNL     1      -2.834  -7.002   6.183  0.00  0.00    +0.027 C 
ATOM     13  C   UNL     1      -1.515  -5.549   3.364  0.00  0.00    +0.007 C 
ATOM     14  C   UNL     1      -1.722  -7.121   4.934  0.00  0.00    +0.036 C 
ATOM     15  C   UNL     1      -1.448  -4.826   2.676  0.00  0.00    +0.005 C 
ATOM     16  C   UNL     1      -2.089  -7.597   5.777  0.00  0.00    +0.011 C 
ATOM     17  C   UNL     1      -3.339  -3.122   3.543  0.00  0.00    +0.049 C 
ATOM     18  C   UNL     1      -1.963  -3.282   2.006  0.00  0.00    +0.038 C 
ATOM     19  C   UNL     1      -3.593  -6.087   6.337  0.00  0.00    +0.014 C 
ATOM     20  C   UNL     1      -3.275  -2.365   2.830  0.00  0.00    +0.152 C 
ATOM     21  C   UNL     1      -2.582  -2.445   2.056  0.00  0.00    +0.151 C 
ATOM     22  C   UNL     1      -3.863  -0.715   2.160  0.00  0.00    +0.247 C 
ATOM     23  C   UNL     1      -3.140  -0.799   1.354  0.00  0.00    +0.314 C 
ATOM     24  C   UNL     1      -4.545   0.183   2.235  0.00  0.00    +0.181 C 
ATOM     25  C   UNL     1      -4.475   1.004   1.462  0.00  0.00    +0.068 C 
ATOM     26  C   UNL     1      -3.722   0.916   0.623  0.00  0.00    +0.121 C 
ATOM     27  C   UNL     1      -3.652   1.636  -0.067  0.00  0.00    +0.038 C 
ENDROOT
BRANCH  12  30
ATOM     28  O   UNL     1      -3.915  -7.199   8.525  0.00  0.00    -0.457 OA
ATOM     29  O   UNL     1      -5.214  -8.409   8.362  0.00  0.00    -0.246 OA
ATOM     30  C   UNL     1      -3.367  -7.209   7.003  0.00  0.00    -0.022 C 
ATOM     31  C   UNL     1      -3.240  -6.799   7.907  0.00  0.00    +0.264 C 
ATOM     32  C   UNL     1      -4.123  -7.861   7.063  0.00  0.00    +0.094 C 
ATOM     33  C   UNL     1      -4.462  -7.855   8.005  0.00  0.00    +0.332 C 
ENDBRANCH  12  30
BRANCH   4  34
ATOM     34  O   UNL     1      -1.577  -6.303   4.070  0.00  0.00    -0.388 OA
ATOM     35  H   UNL     1      -0.969  -6.282   4.192  0.00  0.00    +0.210 HD
ENDBRANCH   4  34
BRANCH   8  37
ATOM     36  O   UNL     1      -3.259  -2.790   4.637  0.00  0.00    -0.300 OA
ATOM     37  C   UNL     1      -3.440  -3.575   4.045  0.00  0.00    +0.230 C 
ENDBRANCH   8  37
BRANCH  22  38
ATOM     38  O   UNL     1      -4.528  -0.637   2.902  0.00  0.00    -0.359 OA
ATOM     39  H   UNL     1      -5.129  -0.745   2.793  0.00  0.00    +0.213 HD
ENDBRANCH  22  38
BRANCH  24  40
ATOM     40  O   UNL     1      -5.207   0.250   2.982  0.00  0.00    -0.386 OA
ATOM     41  H   UNL     1      -5.300   0.794   3.266  0.00  0.00    +0.210 HD
ENDBRANCH  24  40
TORSDOF 5
ENDMDL
MODEL 6
REMARK VINA RESULT:      -7.5      7.344      9.376
REMARK  Name = 16142
REMARK  7 active torsions:
REMARK  status: ('A' for Active; 'I' for Inactive)
REMARK    1  A    between atoms: O_1  and  C_10
REMARK    2  A    between atoms: O_7  and  C_30
REMARK    3  A    between atoms: O_8  and  C_34
REMARK    4  A    between atoms: C_13  and  C_25
REMARK    5  A    between atoms: C_14  and  C_28
REMARK    6  A    between atoms: C_18  and  C_29
REMARK    7  A    between atoms: C_37  and  C_38
REMARK                            x       y       z     vdW  Elec       q    Type
REMARK                         _______ _______ _______ _____ _____    ______ ____
ROOT
ATOM      1  O   UNL     1      -2.148  -0.864  -0.066  0.00  0.00    -0.337 OA
ATOM      2  O   UNL     1      -2.815  -1.804   1.755  0.00  0.00    -0.341 OA
ATOM      3  O   UNL     1      -3.977  -0.332   2.142  0.00  0.00    -0.343 OA
ATOM      4  C   UNL     1       1.052  -5.083  -0.986  0.00  0.00    +0.075 C 
ATOM      5  C   UNL     1       0.349  -4.594  -0.392  0.00  0.00    +0.025 C 
ATOM      6  C   UNL     1      -0.015  -3.701  -0.657  0.00  0.00    +0.008 C 
ATOM      7  C   UNL     1       1.379  -4.635  -1.868  0.00  0.00    +0.004 C 
ATOM      8  C   UNL     1      -0.689  -3.244  -0.076  0.00  0.00    +0.034 C 
ATOM      9  C   UNL     1      -0.999  -3.680   0.769  0.00  0.00    +0.005 C 
ATOM     10  C   UNL     1       0.298  -3.234  -1.534  0.00  0.00    +0.005 C 
ATOM     11  C   UNL     1       0.999  -3.704  -2.143  0.00  0.00    +0.010 C 
ATOM     12  C   UNL     1       2.067  -5.269  -2.309  0.00  0.00    +0.027 C 
ATOM     13  C   UNL     1       0.039  -5.030   0.453  0.00  0.00    +0.007 C 
ATOM     14  C   UNL     1       1.540  -5.991  -0.890  0.00  0.00    +0.036 C 
ATOM     15  C   UNL     1      -0.635  -4.573   1.033  0.00  0.00    +0.005 C 
ATOM     16  C   UNL     1       2.167  -6.106  -1.707  0.00  0.00    +0.011 C 
ATOM     17  C   UNL     1      -1.060  -2.315  -0.365  0.00  0.00    +0.049 C 
ATOM     18  C   UNL     1      -1.701  -3.216   1.383  0.00  0.00    +0.038 C 
ATOM     19  C   UNL     1       1.693  -4.204  -2.714  0.00  0.00    +0.014 C 
ATOM     20  C   UNL     1      -1.762  -1.833   0.234  0.00  0.00    +0.152 C 
ATOM     21  C   UNL     1      -2.085  -2.286   1.114  0.00  0.00    +0.151 C 
ATOM     22  C   UNL     1      -2.880  -0.361   0.558  0.00  0.00    +0.247 C 
ATOM     23  C   UNL     1      -3.216  -0.835   1.475  0.00  0.00    +0.314 C 
ATOM     24  C   UNL     1      -3.282   0.647   0.245  0.00  0.00    +0.181 C 
ATOM     25  C   UNL     1      -4.044   1.171   0.895  0.00  0.00    +0.068 C 
ATOM     26  C   UNL     1      -4.393   0.677   1.850  0.00  0.00    +0.121 C 
ATOM     27  C   UNL     1      -5.068   1.132   2.433  0.00  0.00    +0.038 C 
ENDROOT
BRANCH  12  30
ATOM     28  O   UNL     1       2.913  -5.042  -4.744  0.00  0.00    -0.457 OA
ATOM     29  O   UNL     1       4.529  -4.299  -4.631  0.00  0.00    -0.246 OA
ATOM     30  C   UNL     1       2.551  -5.104  -3.168  0.00  0.00    -0.022 C 
ATOM     31  C   UNL     1       2.214  -5.318  -4.085  0.00  0.00    +0.264 C 
ATOM     32  C   UNL     1       3.460  -4.696  -3.261  0.00  0.00    +0.094 C 
ATOM     33  C   UNL     1       3.683  -4.658  -4.235  0.00  0.00    +0.332 C 
ENDBRANCH  12  30
BRANCH   4  34
ATOM     34  O   UNL     1       0.737  -5.512  -0.140  0.00  0.00    -0.388 OA
ATOM     35  H   UNL     1       0.276  -5.255   0.186  0.00  0.00    +0.210 HD
ENDBRANCH   4  34
BRANCH   8  37
ATOM     36  O   UNL     1      -0.145  -1.697  -0.632  0.00  0.00    -0.300 OA
ATOM     37  C   UNL     1      -0.604  -2.568  -0.807  0.00  0.00    +0.230 C 
ENDBRANCH   8  37
BRANCH  22  38
ATOM     38  O   UNL     1      -2.570   0.074  -0.287  0.00  0.00    -0.359 OA
ATOM     39  H   UNL     1      -2.120  -0.187  -0.624  0.00  0.00    +0.213 HD
ENDBRANCH  22  38
BRANCH  24  40
ATOM     40  O   UNL     1      -2.965   1.074  -0.602  0.00  0.00    -0.386 OA
ATOM     41  H   UNL     1      -2.777   1.665  -0.600  0.00  0.00    +0.210 HD
ENDBRANCH  24  40
TORSDOF 5
ENDMDL
MODEL 7
REMARK VINA RESULT:      -7.4     10.339     14.196
REMARK  Name = 16142
REMARK  7 active torsions:
REMARK  status: ('A' for Active; 'I' for Inactive)
REMARK    1  A    between atoms: O_1  and  C_10
REMARK    2  A    between atoms: O_7  and  C_30
REMARK    3  A    between atoms: O_8  and  C_34
REMARK    4  A    between atoms: C_13  and  C_25
REMARK    5  A    between atoms: C_14  and  C_28
REMARK    6  A    between atoms: C_18  and  C_29
REMARK    7  A    between atoms: C_37  and  C_38
REMARK                            x       y       z     vdW  Elec       q    Type
REMARK                         _______ _______ _______ _____ _____    ______ ____
ROOT
ATOM      1  O   UNL     1      -2.979  -1.564   1.980  0.00  0.00    -0.337 OA
ATOM      2  O   UNL     1      -4.581  -0.956   3.286  0.00  0.00    -0.341 OA
ATOM      3  O   UNL     1      -4.922   0.597   2.221  0.00  0.00    -0.343 OA
ATOM      4  C   UNL     1      -2.169  -5.870   5.092  0.00  0.00    +0.075 C 
ATOM      5  C   UNL     1      -2.692  -4.994   4.879  0.00  0.00    +0.025 C 
ATOM      6  C   UNL     1      -2.459  -4.438   4.081  0.00  0.00    +0.008 C 
ATOM      7  C   UNL     1      -1.393  -6.170   4.465  0.00  0.00    +0.004 C 
ATOM      8  C   UNL     1      -2.970  -3.600   3.890  0.00  0.00    +0.034 C 
ATOM      9  C   UNL     1      -3.713  -3.318   4.496  0.00  0.00    +0.005 C 
ATOM     10  C   UNL     1      -1.687  -4.719   3.440  0.00  0.00    +0.005 C 
ATOM     11  C   UNL     1      -1.151  -5.590   3.633  0.00  0.00    +0.010 C 
ATOM     12  C   UNL     1      -1.005  -7.052   4.841  0.00  0.00    +0.027 C 
ATOM     13  C   UNL     1      -3.436  -4.712   5.485  0.00  0.00    +0.007 C 
ATOM     14  C   UNL     1      -2.253  -6.569   5.851  0.00  0.00    +0.036 C 
ATOM     15  C   UNL     1      -3.946  -3.874   5.294  0.00  0.00    +0.005 C 
ATOM     16  C   UNL     1      -1.535  -7.299   5.696  0.00  0.00    +0.011 C 
ATOM     17  C   UNL     1      -2.716  -3.031   3.055  0.00  0.00    +0.049 C 
ATOM     18  C   UNL     1      -4.254  -2.447   4.309  0.00  0.00    +0.038 C 
ATOM     19  C   UNL     1      -0.649  -6.458   3.862  0.00  0.00    +0.014 C 
ATOM     20  C   UNL     1      -3.243  -2.157   2.849  0.00  0.00    +0.152 C 
ATOM     21  C   UNL     1      -4.018  -1.863   3.480  0.00  0.00    +0.151 C 
ATOM     22  C   UNL     1      -3.528  -0.653   1.765  0.00  0.00    +0.247 C 
ATOM     23  C   UNL     1      -4.335  -0.347   2.423  0.00  0.00    +0.314 C 
ATOM     24  C   UNL     1      -3.253  -0.036   0.859  0.00  0.00    +0.181 C 
ATOM     25  C   UNL     1      -3.825   0.913   0.635  0.00  0.00    +0.068 C 
ATOM     26  C   UNL     1      -4.666   1.231   1.321  0.00  0.00    +0.121 C 
ATOM     27  C   UNL     1      -5.178   2.069   1.132  0.00  0.00    +0.038 C 
ENDROOT
BRANCH  12  30
ATOM     28  O   UNL     1       0.595  -8.616   3.541  0.00  0.00    -0.457 OA
ATOM     29  O   UNL     1       2.224  -8.294   4.188  0.00  0.00    -0.246 OA
ATOM     30  C   UNL     1      -0.249  -7.575   4.448  0.00  0.00    -0.022 C 
ATOM     31  C   UNL     1      -0.322  -8.263   3.726  0.00  0.00    +0.264 C 
ATOM     32  C   UNL     1       0.714  -7.503   4.709  0.00  0.00    +0.094 C 
ATOM     33  C   UNL     1       1.235  -8.146   4.148  0.00  0.00    +0.332 C 
ENDBRANCH  12  30
BRANCH   4  34
ATOM     34  O   UNL     1      -2.914  -5.581   5.694  0.00  0.00    -0.388 OA
ATOM     35  H   UNL     1      -3.433  -5.343   5.452  0.00  0.00    +0.210 HD
ENDBRANCH   4  34
BRANCH   8  37
ATOM     36  O   UNL     1      -2.651  -3.767   2.195  0.00  0.00    -0.300 OA
ATOM     37  C   UNL     1      -2.327  -3.589   3.125  0.00  0.00    +0.230 C 
ENDBRANCH   8  37
BRANCH  22  38
ATOM     38  O   UNL     1      -2.785  -0.935   1.158  0.00  0.00    -0.359 OA
ATOM     39  H   UNL     1      -2.853  -0.893   0.543  0.00  0.00    +0.213 HD
ENDBRANCH  22  38
BRANCH  24  40
ATOM     40  O   UNL     1      -2.507  -0.327   0.259  0.00  0.00    -0.386 OA
ATOM     41  H   UNL     1      -2.523  -0.188  -0.345  0.00  0.00    +0.210 HD
ENDBRANCH  24  40
TORSDOF 5
ENDMDL
MODEL 8
REMARK VINA RESULT:      -7.3     11.048     15.499
REMARK  Name = 16142
REMARK  7 active torsions:
REMARK  status: ('A' for Active; 'I' for Inactive)
REMARK    1  A    between atoms: O_1  and  C_10
REMARK    2  A    between atoms: O_7  and  C_30
REMARK    3  A    between atoms: O_8  and  C_34
REMARK    4  A    between atoms: C_13  and  C_25
REMARK    5  A    between atoms: C_14  and  C_28
REMARK    6  A    between atoms: C_18  and  C_29
REMARK    7  A    between atoms: C_37  and  C_38
REMARK                            x       y       z     vdW  Elec       q    Type
REMARK                         _______ _______ _______ _____ _____    ______ ____
ROOT
ATOM      1  O   UNL     1      -2.481  -1.230   3.569  0.00  0.00    -0.337 OA
ATOM      2  O   UNL     1      -4.626  -1.391   3.701  0.00  0.00    -0.341 OA
ATOM      3  O   UNL     1      -4.855   0.022   2.430  0.00  0.00    -0.343 OA
ATOM      4  C   UNL     1      -2.035  -5.212   7.151  0.00  0.00    +0.075 C 
ATOM      5  C   UNL     1      -2.627  -4.576   6.576  0.00  0.00    +0.025 C 
ATOM      6  C   UNL     1      -2.212  -3.898   5.969  0.00  0.00    +0.008 C 
ATOM      7  C   UNL     1      -0.997  -5.141   7.093  0.00  0.00    +0.004 C 
ATOM      8  C   UNL     1      -2.793  -3.295   5.423  0.00  0.00    +0.034 C 
ATOM      9  C   UNL     1      -3.788  -3.369   5.484  0.00  0.00    +0.005 C 
ATOM     10  C   UNL     1      -1.177  -3.809   5.894  0.00  0.00    +0.005 C 
ATOM     11  C   UNL     1      -0.565  -4.434   6.460  0.00  0.00    +0.010 C 
ATOM     12  C   UNL     1      -0.594  -5.848   7.731  0.00  0.00    +0.027 C 
ATOM     13  C   UNL     1      -3.622  -4.651   6.637  0.00  0.00    +0.007 C 
ATOM     14  C   UNL     1      -2.264  -5.964   7.825  0.00  0.00    +0.036 C 
ATOM     15  C   UNL     1      -4.203  -4.047   6.091  0.00  0.00    +0.005 C 
ATOM     16  C   UNL     1      -1.375  -6.356   8.183  0.00  0.00    +0.011 C 
ATOM     17  C   UNL     1      -2.347  -2.594   4.795  0.00  0.00    +0.049 C 
ATOM     18  C   UNL     1      -4.406  -2.747   4.921  0.00  0.00    +0.038 C 
ATOM     19  C   UNL     1      -0.001  -5.071   7.036  0.00  0.00    +0.014 C 
ATOM     20  C   UNL     1      -2.945  -1.961   4.223  0.00  0.00    +0.152 C 
ATOM     21  C   UNL     1      -3.982  -2.038   4.286  0.00  0.00    +0.151 C 
ATOM     22  C   UNL     1      -3.104  -0.572   2.974  0.00  0.00    +0.247 C 
ATOM     23  C   UNL     1      -4.185  -0.653   3.040  0.00  0.00    +0.314 C 
ATOM     24  C   UNL     1      -2.620   0.189   2.293  0.00  0.00    +0.181 C 
ATOM     25  C   UNL     1      -3.269   0.876   1.672  0.00  0.00    +0.068 C 
ATOM     26  C   UNL     1      -4.395   0.791   1.741  0.00  0.00    +0.121 C 
ATOM     27  C   UNL     1      -4.979   1.393   1.197  0.00  0.00    +0.038 C 
ENDROOT
BRANCH  12  30
ATOM     28  O   UNL     1       1.888  -5.899   8.459  0.00  0.00    -0.457 OA
ATOM     29  O   UNL     1       2.647  -7.205   7.512  0.00  0.00    -0.246 OA
ATOM     30  C   UNL     1       0.380  -6.013   7.885  0.00  0.00    -0.022 C 
ATOM     31  C   UNL     1       0.968  -5.514   8.521  0.00  0.00    +0.264 C 
ATOM     32  C   UNL     1       0.937  -6.708   7.430  0.00  0.00    +0.094 C 
ATOM     33  C   UNL     1       1.870  -6.637   7.785  0.00  0.00    +0.332 C 
ENDBRANCH  12  30
BRANCH   4  34
ATOM     34  O   UNL     1      -3.031  -5.281   7.206  0.00  0.00    -0.388 OA
ATOM     35  H   UNL     1      -3.321  -5.778   6.976  0.00  0.00    +0.210 HD
ENDBRANCH   4  34
BRANCH   8  37
ATOM     36  O   UNL     1      -1.566  -2.072   5.431  0.00  0.00    -0.300 OA
ATOM     37  C   UNL     1      -1.891  -2.971   5.138  0.00  0.00    +0.230 C 
ENDBRANCH   8  37
BRANCH  22  38
ATOM     38  O   UNL     1      -2.109  -0.497   2.913  0.00  0.00    -0.359 OA
ATOM     39  H   UNL     1      -1.819  -0.636   2.382  0.00  0.00    +0.213 HD
ENDBRANCH  22  38
BRANCH  24  40
ATOM     40  O   UNL     1      -1.624   0.255   2.239  0.00  0.00    -0.386 OA
ATOM     41  H   UNL     1      -1.270  -0.104   2.600  0.00  0.00    +0.210 HD
ENDBRANCH  24  40
TORSDOF 5
ENDMDL
MODEL 9
REMARK VINA RESULT:      -7.3      4.435      7.847
REMARK  Name = 16142
REMARK  7 active torsions:
REMARK  status: ('A' for Active; 'I' for Inactive)
REMARK    1  A    between atoms: O_1  and  C_10
REMARK    2  A    between atoms: O_7  and  C_30
REMARK    3  A    between atoms: O_8  and  C_34
REMARK    4  A    between atoms: C_13  and  C_25
REMARK    5  A    between atoms: C_14  and  C_28
REMARK    6  A    between atoms: C_18  and  C_29
REMARK    7  A    between atoms: C_37  and  C_38
REMARK                            x       y       z     vdW  Elec       q    Type
REMARK                         _______ _______ _______ _____ _____    ______ ____
ROOT
ATOM      1  O   UNL     1      -1.392  -1.198   0.949  0.00  0.00    -0.337 OA
ATOM      2  O   UNL     1      -2.525  -2.993   1.320  0.00  0.00    -0.341 OA
ATOM      3  O   UNL     1      -3.393  -2.187   2.825  0.00  0.00    -0.343 OA
ATOM      4  C   UNL     1       0.942  -3.624  -3.240  0.00  0.00    +0.075 C 
ATOM      5  C   UNL     1       0.274  -3.645  -2.441  0.00  0.00    +0.025 C 
ATOM      6  C   UNL     1       0.155  -2.847  -1.850  0.00  0.00    +0.008 C 
ATOM      7  C   UNL     1       1.494  -2.760  -3.426  0.00  0.00    +0.004 C 
ATOM      8  C   UNL     1      -0.490  -2.882  -1.087  0.00  0.00    +0.034 C 
ATOM      9  C   UNL     1      -1.016  -3.715  -0.914  0.00  0.00    +0.005 C 
ATOM     10  C   UNL     1       0.696  -1.972  -2.017  0.00  0.00    +0.005 C 
ATOM     11  C   UNL     1       1.370  -1.928  -2.810  0.00  0.00    +0.010 C 
ATOM     12  C   UNL     1       2.092  -2.937  -4.251  0.00  0.00    +0.027 C 
ATOM     13  C   UNL     1      -0.252  -4.478  -2.268  0.00  0.00    +0.007 C 
ATOM     14  C   UNL     1       1.205  -4.328  -3.952  0.00  0.00    +0.036 C 
ATOM     15  C   UNL     1      -0.897  -4.513  -1.505  0.00  0.00    +0.005 C 
ATOM     16  C   UNL     1       1.915  -3.904  -4.576  0.00  0.00    +0.011 C 
ATOM     17  C   UNL     1      -0.603  -2.043  -0.480  0.00  0.00    +0.049 C 
ATOM     18  C   UNL     1      -1.692  -3.766  -0.123  0.00  0.00    +0.038 C 
ATOM     19  C   UNL     1       2.023  -1.930  -3.604  0.00  0.00    +0.014 C 
ATOM     20  C   UNL     1      -1.273  -2.072   0.317  0.00  0.00    +0.152 C 
ATOM     21  C   UNL     1      -1.821  -2.938   0.497  0.00  0.00    +0.151 C 
ATOM     22  C   UNL     1      -2.089  -1.227   1.779  0.00  0.00    +0.247 C 
ATOM     23  C   UNL     1      -2.660  -2.132   1.966  0.00  0.00    +0.314 C 
ATOM     24  C   UNL     1      -2.212  -0.317   2.438  0.00  0.00    +0.181 C 
ATOM     25  C   UNL     1      -2.939  -0.348   3.303  0.00  0.00    +0.068 C 
ATOM     26  C   UNL     1      -3.534  -1.290   3.497  0.00  0.00    +0.121 C 
ATOM     27  C   UNL     1      -4.180  -1.328   4.260  0.00  0.00    +0.038 C 
ENDROOT
BRANCH  12  30
ATOM     28  O   UNL     1       4.067  -1.429  -4.974  0.00  0.00    -0.457 OA
ATOM     29  O   UNL     1       3.463  -0.458  -6.341  0.00  0.00    -0.246 OA
ATOM     30  C   UNL     1       2.731  -2.288  -4.663  0.00  0.00    -0.022 C 
ATOM     31  C   UNL     1       3.678  -2.133  -4.380  0.00  0.00    +0.264 C 
ATOM     32  C   UNL     1       2.536  -1.680  -5.433  0.00  0.00    +0.094 C 
ATOM     33  C   UNL     1       3.361  -1.148  -5.624  0.00  0.00    +0.332 C 
ENDBRANCH  12  30
BRANCH   4  34
ATOM     34  O   UNL     1       0.413  -4.453  -3.061  0.00  0.00    -0.388 OA
ATOM     35  H   UNL     1       0.136  -4.532  -2.512  0.00  0.00    +0.210 HD
ENDBRANCH   4  34
BRANCH   8  37
ATOM     36  O   UNL     1      -0.749  -1.171  -1.162  0.00  0.00    -0.300 OA
ATOM     37  C   UNL     1      -0.147  -1.949  -0.981  0.00  0.00    +0.230 C 
ENDBRANCH   8  37
BRANCH  22  38
ATOM     38  O   UNL     1      -1.563  -0.395   1.607  0.00  0.00    -0.359 OA
ATOM     39  H   UNL     1      -1.857   0.142   1.506  0.00  0.00    +0.213 HD
ENDBRANCH  22  38
BRANCH  24  40
ATOM     40  O   UNL     1      -1.681   0.511   2.256  0.00  0.00    -0.386 OA
ATOM     41  H   UNL     1      -1.840   0.884   1.788  0.00  0.00    +0.210 HD
ENDBRANCH  24  40
TORSDOF 5
ENDMDL
