MODEL 1
REMARK VINA RESULT:      -4.5      0.000      0.000
REMARK  Name = 2244
REMARK  5 active torsions:
REMARK  status: ('A' for Active; 'I' for Inactive)
REMARK    1  A    between atoms: O_1  and  C_5
REMARK    2  A    between atoms: O_1  and  C_12
REMARK    3  A    between atoms: O_2  and  C_11
REMARK    4  A    between atoms: C_6  and  C_11
REMARK    5  A    between atoms: C_12  and  C_13
REMARK                            x       y       z     vdW  Elec       q    Type
REMARK                         _______ _______ _______ _____ _____    ______ ____
ROOT
ATOM      1  C   UNL     1       9.324   5.388  -9.935  0.00  0.00    +0.146 A 
ATOM      2  C   UNL     1       8.582   6.043 -10.075  0.00  0.00    +0.101 A 
ATOM      3  C   UNL     1       9.270   4.722  -9.192  0.00  0.00    +0.047 A 
ATOM      4  C   UNL     1       7.785   6.032  -9.471  0.00  0.00    +0.018 A 
ATOM      5  C   UNL     1       8.473   4.711  -8.587  0.00  0.00    +0.004 A 
ATOM      6  C   UNL     1       7.731   5.366  -8.727  0.00  0.00    +0.001 A 
ENDROOT
BRANCH   2   8
ATOM      7  O   UNL     1       8.282   6.477 -11.725  0.00  0.00    -0.245 OA
ATOM      8  C   UNL     1       8.636   6.709 -10.819  0.00  0.00    +0.340 C 
BRANCH   8   9
ATOM      9  O   UNL     1       9.044   7.608 -10.657  0.00  0.00    -0.477 OA
ATOM     10  H   UNL     1       9.410   7.698 -10.164  0.00  0.00    +0.295 HD
ENDBRANCH   8   9
ENDBRANCH   2   8
BRANCH   1  11
ATOM     11  O   UNL     1      10.121   5.399 -10.540  0.00  0.00    -0.425 OA
BRANCH  11  13
ATOM     12  O   UNL     1      11.622   5.046  -9.751  0.00  0.00    -0.251 OA
ATOM     13  C   UNL     1      10.885   4.776 -10.371  0.00  0.00    +0.309 C 
ATOM     14  C   UNL     1      10.912   3.884 -10.822  0.00  0.00    +0.136 C 
ENDBRANCH  11  13
ENDBRANCH   1  11
TORSDOF 4
ENDMDL
MODEL 2
REMARK VINA RESULT:      -4.2      0.912      2.753
REMARK  Name = 2244
REMARK  5 active torsions:
REMARK  status: ('A' for Active; 'I' for Inactive)
REMARK    1  A    between atoms: O_1  and  C_5
REMARK    2  A    between atoms: O_1  and  C_12
REMARK    3  A    between atoms: O_2  and  C_11
REMARK    4  A    between atoms: C_6  and  C_11
REMARK    5  A    between atoms: C_12  and  C_13
REMARK                            x       y       z     vdW  Elec       q    Type
REMARK                         _______ _______ _______ _____ _____    ______ ____
ROOT
ATOM      1  C   UNL     1       9.559   4.972  -9.768  0.00  0.00    +0.146 A 
ATOM      2  C   UNL     1      10.346   4.468  -9.412  0.00  0.00    +0.101 A 
ATOM      3  C   UNL     1       8.702   4.990  -9.253  0.00  0.00    +0.047 A 
ATOM      4  C   UNL     1      10.275   3.981  -8.542  0.00  0.00    +0.018 A 
ATOM      5  C   UNL     1       8.631   4.503  -8.382  0.00  0.00    +0.004 A 
ATOM      6  C   UNL     1       9.418   3.999  -8.027  0.00  0.00    +0.001 A 
ENDROOT
BRANCH   2   8
ATOM      7  O   UNL     1      11.357   3.743 -10.617  0.00  0.00    -0.245 OA
ATOM      8  C   UNL     1      11.203   4.450  -9.927  0.00  0.00    +0.340 C 
BRANCH   8   9
ATOM      9  O   UNL     1      11.905   5.139  -9.752  0.00  0.00    -0.477 OA
ATOM     10  H   UNL     1      11.873   5.493  -9.244  0.00  0.00    +0.295 HD
ENDBRANCH   8   9
ENDBRANCH   2   8
BRANCH   1  11
ATOM     11  O   UNL     1       9.629   5.459 -10.639  0.00  0.00    -0.425 OA
BRANCH  11  13
ATOM     12  O   UNL     1       9.112   7.110 -10.553  0.00  0.00    -0.251 OA
ATOM     13  C   UNL     1       8.966   6.172 -10.868  0.00  0.00    +0.309 C 
ATOM     14  C   UNL     1       8.159   5.947 -11.412  0.00  0.00    +0.136 C 
ENDBRANCH  11  13
ENDBRANCH   1  11
TORSDOF 4
ENDMDL
MODEL 3
REMARK VINA RESULT:      -3.9      3.627      4.685
REMARK  Name = 2244
REMARK  5 active torsions:
REMARK  status: ('A' for Active; 'I' for Inactive)
REMARK    1  A    between atoms: O_1  and  C_5
REMARK    2  A    between atoms: O_1  and  C_12
REMARK    3  A    between atoms: O_2  and  C_11
REMARK    4  A    between atoms: C_6  and  C_11
REMARK    5  A    between atoms: C_12  and  C_13
REMARK                            x       y       z     vdW  Elec       q    Type
REMARK                         _______ _______ _______ _____ _____    ______ ____
ROOT
ATOM      1  C   UNL     1       6.752   6.398  -6.945  0.00  0.00    +0.146 A 
ATOM      2  C   UNL     1       6.683   6.709  -5.997  0.00  0.00    +0.101 A 
ATOM      3  C   UNL     1       5.985   6.532  -7.572  0.00  0.00    +0.047 A 
ATOM      4  C   UNL     1       5.846   7.153  -5.676  0.00  0.00    +0.018 A 
ATOM      5  C   UNL     1       5.148   6.976  -7.252  0.00  0.00    +0.004 A 
ATOM      6  C   UNL     1       5.079   7.287  -6.304  0.00  0.00    +0.001 A 
ENDROOT
BRANCH   2   8
ATOM      7  O   UNL     1       7.530   5.725  -4.851  0.00  0.00    -0.245 OA
ATOM      8  C   UNL     1       7.450   6.576  -5.370  0.00  0.00    +0.340 C 
BRANCH   8   9
ATOM      9  O   UNL     1       8.138   7.294  -5.261  0.00  0.00    -0.477 OA
ATOM     10  H   UNL     1       8.114   7.675  -4.773  0.00  0.00    +0.295 HD
ENDBRANCH   8   9
ENDBRANCH   2   8
BRANCH   1  11
ATOM     11  O   UNL     1       7.589   5.954  -7.266  0.00  0.00    -0.425 OA
BRANCH  11  13
ATOM     12  O   UNL     1       7.861   6.214  -8.956  0.00  0.00    -0.251 OA
ATOM     13  C   UNL     1       7.640   5.599  -8.199  0.00  0.00    +0.309 C 
ATOM     14  C   UNL     1       7.471   4.629  -8.375  0.00  0.00    +0.136 C 
ENDBRANCH  11  13
ENDBRANCH   1  11
TORSDOF 4
ENDMDL
MODEL 4
REMARK VINA RESULT:      -3.8      6.055      7.299
REMARK  Name = 2244
REMARK  5 active torsions:
REMARK  status: ('A' for Active; 'I' for Inactive)
REMARK    1  A    between atoms: O_1  and  C_5
REMARK    2  A    between atoms: O_1  and  C_12
REMARK    3  A    between atoms: O_2  and  C_11
REMARK    4  A    between atoms: C_6  and  C_11
REMARK    5  A    between atoms: C_12  and  C_13
REMARK                            x       y       z     vdW  Elec       q    Type
REMARK                         _______ _______ _______ _____ _____    ______ ____
ROOT
ATOM      1  C   UNL     1       7.014   6.601  -3.653  0.00  0.00    +0.146 A 
ATOM      2  C   UNL     1       7.622   6.552  -4.445  0.00  0.00    +0.101 A 
ATOM      3  C   UNL     1       6.068   6.286  -3.729  0.00  0.00    +0.047 A 
ATOM      4  C   UNL     1       7.284   6.188  -5.313  0.00  0.00    +0.018 A 
ATOM      5  C   UNL     1       5.730   5.922  -4.596  0.00  0.00    +0.004 A 
ATOM      6  C   UNL     1       6.338   5.873  -5.389  0.00  0.00    +0.001 A 
ENDROOT
BRANCH   2   8
ATOM      7  O   UNL     1       9.271   6.257  -4.003  0.00  0.00    -0.245 OA
ATOM      8  C   UNL     1       8.568   6.867  -4.370  0.00  0.00    +0.340 C 
BRANCH   8   9
ATOM      9  O   UNL     1       8.812   7.792  -4.660  0.00  0.00    -0.477 OA
ATOM     10  H   UNL     1       9.001   7.895  -5.242  0.00  0.00    +0.295 HD
ENDBRANCH   8   9
ENDBRANCH   2   8
BRANCH   1  11
ATOM     11  O   UNL     1       7.352   6.965  -2.785  0.00  0.00    -0.425 OA
BRANCH  11  13
ATOM     12  O   UNL     1       6.136   7.930  -2.017  0.00  0.00    -0.251 OA
ATOM     13  C   UNL     1       6.719   7.118  -2.026  0.00  0.00    +0.309 C 
ATOM     14  C   UNL     1       6.668   6.458  -1.277  0.00  0.00    +0.136 C 
ENDBRANCH  11  13
ENDBRANCH   1  11
TORSDOF 4
ENDMDL
MODEL 5
REMARK VINA RESULT:      -3.8      1.602      2.412
REMARK  Name = 2244
REMARK  5 active torsions:
REMARK  status: ('A' for Active; 'I' for Inactive)
REMARK    1  A    between atoms: O_1  and  C_5
REMARK    2  A    between atoms: O_1  and  C_12
REMARK    3  A    between atoms: O_2  and  C_11
REMARK    4  A    between atoms: C_6  and  C_11
REMARK    5  A    between atoms: C_12  and  C_13
REMARK                            x       y       z     vdW  Elec       q    Type
REMARK                         _______ _______ _______ _____ _____    ______ ____
ROOT
ATOM      1  C   UNL     1       9.408   4.865  -9.395  0.00  0.00    +0.146 A 
ATOM      2  C   UNL     1       8.657   4.867  -8.735  0.00  0.00    +0.101 A 
ATOM      3  C   UNL     1       9.348   5.422 -10.223  0.00  0.00    +0.047 A 
ATOM      4  C   UNL     1       7.845   5.426  -8.903  0.00  0.00    +0.018 A 
ATOM      5  C   UNL     1       8.536   5.982 -10.391  0.00  0.00    +0.004 A 
ATOM      6  C   UNL     1       7.785   5.983  -9.731  0.00  0.00    +0.001 A 
ENDROOT
BRANCH   2   8
ATOM      7  O   UNL     1       8.397   3.362  -7.917  0.00  0.00    -0.245 OA
ATOM      8  C   UNL     1       8.717   4.309  -7.907  0.00  0.00    +0.340 C 
BRANCH   8   9
ATOM      9  O   UNL     1       9.098   4.699  -7.069  0.00  0.00    -0.477 OA
ATOM     10  H   UNL     1       9.393   5.244  -7.086  0.00  0.00    +0.295 HD
ENDBRANCH   8   9
ENDBRANCH   2   8
BRANCH   1  11
ATOM     11  O   UNL     1      10.220   4.305  -9.227  0.00  0.00    -0.425 OA
BRANCH  11  13
ATOM     12  O   UNL     1      11.655   5.090  -9.798  0.00  0.00    -0.251 OA
ATOM     13  C   UNL     1      10.993   4.343  -9.860  0.00  0.00    +0.309 C 
ATOM     14  C   UNL     1      11.105   3.633 -10.555  0.00  0.00    +0.136 C 
ENDBRANCH  11  13
ENDBRANCH   1  11
TORSDOF 4
ENDMDL
MODEL 6
REMARK VINA RESULT:      -3.8      4.347      5.395
REMARK  Name = 2244
REMARK  5 active torsions:
REMARK  status: ('A' for Active; 'I' for Inactive)
REMARK    1  A    between atoms: O_1  and  C_5
REMARK    2  A    between atoms: O_1  and  C_12
REMARK    3  A    between atoms: O_2  and  C_11
REMARK    4  A    between atoms: C_6  and  C_11
REMARK    5  A    between atoms: C_12  and  C_13
REMARK                            x       y       z     vdW  Elec       q    Type
REMARK                         _______ _______ _______ _____ _____    ______ ____
ROOT
ATOM      1  C   UNL     1       7.113   5.741  -5.503  0.00  0.00    +0.146 A 
ATOM      2  C   UNL     1       7.256   6.343  -4.718  0.00  0.00    +0.101 A 
ATOM      3  C   UNL     1       6.206   5.357  -5.680  0.00  0.00    +0.047 A 
ATOM      4  C   UNL     1       6.493   6.562  -4.110  0.00  0.00    +0.018 A 
ATOM      5  C   UNL     1       5.443   5.576  -5.072  0.00  0.00    +0.004 A 
ATOM      6  C   UNL     1       5.587   6.178  -4.287  0.00  0.00    +0.001 A 
ENDROOT
BRANCH   2   8
ATOM      7  O   UNL     1       8.806   6.237  -3.951  0.00  0.00    -0.245 OA
ATOM      8  C   UNL     1       8.163   6.726  -4.541  0.00  0.00    +0.340 C 
BRANCH   8   9
ATOM      9  O   UNL     1       8.426   7.598  -4.953  0.00  0.00    -0.477 OA
ATOM     10  H   UNL     1       8.179   7.772  -5.494  0.00  0.00    +0.295 HD
ENDBRANCH   8   9
ENDBRANCH   2   8
BRANCH   1  11
ATOM     11  O   UNL     1       7.876   5.522  -6.111  0.00  0.00    -0.425 OA
BRANCH  11  13
ATOM     12  O   UNL     1       7.493   6.179  -7.668  0.00  0.00    -0.251 OA
ATOM     13  C   UNL     1       7.714   5.393  -7.090  0.00  0.00    +0.309 C 
ATOM     14  C   UNL     1       7.774   4.479  -7.490  0.00  0.00    +0.136 C 
ENDBRANCH  11  13
ENDBRANCH   1  11
TORSDOF 4
ENDMDL
MODEL 7
REMARK VINA RESULT:      -3.7      5.964      7.102
REMARK  Name = 2244
REMARK  5 active torsions:
REMARK  status: ('A' for Active; 'I' for Inactive)
REMARK    1  A    between atoms: O_1  and  C_5
REMARK    2  A    between atoms: O_1  and  C_12
REMARK    3  A    between atoms: O_2  and  C_11
REMARK    4  A    between atoms: C_6  and  C_11
REMARK    5  A    between atoms: C_12  and  C_13
REMARK                            x       y       z     vdW  Elec       q    Type
REMARK                         _______ _______ _______ _____ _____    ______ ____
ROOT
ATOM      1  C   UNL     1       7.112   6.234  -3.705  0.00  0.00    +0.146 A 
ATOM      2  C   UNL     1       7.770   6.607  -4.358  0.00  0.00    +0.101 A 
ATOM      3  C   UNL     1       6.189   5.996  -4.006  0.00  0.00    +0.047 A 
ATOM      4  C   UNL     1       7.505   6.742  -5.313  0.00  0.00    +0.018 A 
ATOM      5  C   UNL     1       5.924   6.131  -4.961  0.00  0.00    +0.004 A 
ATOM      6  C   UNL     1       6.582   6.504  -5.614  0.00  0.00    +0.001 A 
ENDROOT
BRANCH   2   8
ATOM      7  O   UNL     1       8.867   7.733  -3.630  0.00  0.00    -0.245 OA
ATOM      8  C   UNL     1       8.694   6.846  -4.057  0.00  0.00    +0.340 C 
BRANCH   8   9
ATOM      9  O   UNL     1       9.444   6.196  -4.184  0.00  0.00    -0.477 OA
ATOM     10  H   UNL     1      10.031   6.384  -4.116  0.00  0.00    +0.295 HD
ENDBRANCH   8   9
ENDBRANCH   2   8
BRANCH   1  11
ATOM     11  O   UNL     1       7.377   6.100  -2.750  0.00  0.00    -0.425 OA
BRANCH  11  13
ATOM     12  O   UNL     1       7.433   4.399  -2.424  0.00  0.00    -0.251 OA
ATOM     13  C   UNL     1       7.043   5.303  -2.246  0.00  0.00    +0.309 C 
ATOM     14  C   UNL     1       6.319   5.410  -1.564  0.00  0.00    +0.136 C 
ENDBRANCH  11  13
ENDBRANCH   1  11
TORSDOF 4
ENDMDL
MODEL 8
REMARK VINA RESULT:      -3.6      1.305      2.636
REMARK  Name = 2244
REMARK  5 active torsions:
REMARK  status: ('A' for Active; 'I' for Inactive)
REMARK    1  A    between atoms: O_1  and  C_5
REMARK    2  A    between atoms: O_1  and  C_12
REMARK    3  A    between atoms: O_2  and  C_11
REMARK    4  A    between atoms: C_6  and  C_11
REMARK    5  A    between atoms: C_12  and  C_13
REMARK                            x       y       z     vdW  Elec       q    Type
REMARK                         _______ _______ _______ _____ _____    ______ ____
ROOT
ATOM      1  C   UNL     1       9.109   5.338  -9.676  0.00  0.00    +0.146 A 
ATOM      2  C   UNL     1       9.520   5.699 -10.512  0.00  0.00    +0.101 A 
ATOM      3  C   UNL     1       9.546   4.580  -9.191  0.00  0.00    +0.047 A 
ATOM      4  C   UNL     1      10.368   5.303 -10.865  0.00  0.00    +0.018 A 
ATOM      5  C   UNL     1      10.393   4.183  -9.543  0.00  0.00    +0.004 A 
ATOM      6  C   UNL     1      10.805   4.545 -10.380  0.00  0.00    +0.001 A 
ENDROOT
BRANCH   2   8
ATOM      7  O   UNL     1       9.307   7.401 -10.754  0.00  0.00    -0.245 OA
ATOM      8  C   UNL     1       9.083   6.457 -10.997  0.00  0.00    +0.340 C 
BRANCH   8   9
ATOM      9  O   UNL     1       8.423   6.271 -11.725  0.00  0.00    -0.477 OA
ATOM     10  H   UNL     1       8.363   5.696 -11.949  0.00  0.00    +0.295 HD
ENDBRANCH   8   9
ENDBRANCH   2   8
BRANCH   1  11
ATOM     11  O   UNL     1       8.261   5.734  -9.324  0.00  0.00    -0.425 OA
BRANCH  11  13
ATOM     12  O   UNL     1       8.064   5.526  -7.616  0.00  0.00    -0.251 OA
ATOM     13  C   UNL     1       7.791   5.305  -8.552  0.00  0.00    +0.309 C 
ATOM     14  C   UNL     1       7.049   4.656  -8.717  0.00  0.00    +0.136 C 
ENDBRANCH  11  13
ENDBRANCH   1  11
TORSDOF 4
ENDMDL
MODEL 9
REMARK VINA RESULT:      -3.6      3.835      5.065
REMARK  Name = 2244
REMARK  5 active torsions:
REMARK  status: ('A' for Active; 'I' for Inactive)
REMARK    1  A    between atoms: O_1  and  C_5
REMARK    2  A    between atoms: O_1  and  C_12
REMARK    3  A    between atoms: O_2  and  C_11
REMARK    4  A    between atoms: C_6  and  C_11
REMARK    5  A    between atoms: C_12  and  C_13
REMARK                            x       y       z     vdW  Elec       q    Type
REMARK                         _______ _______ _______ _____ _____    ______ ____
ROOT
ATOM      1  C   UNL     1       7.107   6.147  -6.082  0.00  0.00    +0.146 A 
ATOM      2  C   UNL     1       7.155   5.679  -6.964  0.00  0.00    +0.101 A 
ATOM      3  C   UNL     1       6.386   6.818  -5.910  0.00  0.00    +0.047 A 
ATOM      4  C   UNL     1       6.482   5.883  -7.675  0.00  0.00    +0.018 A 
ATOM      5  C   UNL     1       5.713   7.021  -6.621  0.00  0.00    +0.004 A 
ATOM      6  C   UNL     1       5.761   6.554  -7.503  0.00  0.00    +0.001 A 
ENDROOT
BRANCH   2   8
ATOM      7  O   UNL     1       7.766   4.064  -6.826  0.00  0.00    -0.245 OA
ATOM      8  C   UNL     1       7.877   5.008  -7.136  0.00  0.00    +0.340 C 
BRANCH   8   9
ATOM      9  O   UNL     1       8.709   5.281  -7.619  0.00  0.00    -0.477 OA
ATOM     10  H   UNL     1       8.708   5.325  -8.238  0.00  0.00    +0.295 HD
ENDBRANCH   8   9
ENDBRANCH   2   8
BRANCH   1  11
ATOM     11  O   UNL     1       7.781   5.943  -5.371  0.00  0.00    -0.425 OA
BRANCH  11  13
ATOM     12  O   UNL     1       8.420   7.415  -4.719  0.00  0.00    -0.251 OA
ATOM     13  C   UNL     1       7.899   6.569  -4.600  0.00  0.00    +0.309 C 
ATOM     14  C   UNL     1       7.497   6.350  -3.712  0.00  0.00    +0.136 C 
ENDBRANCH  11  13
ENDBRANCH   1  11
TORSDOF 4
ENDMDL
