MODEL 1
REMARK VINA RESULT:       0.0      0.000      0.000
REMARK  Name = 962
REMARK  0 active torsions:
REMARK  status: ('A' for Active; 'I' for Inactive)
REMARK                            x       y       z     vdW  Elec       q    Type
REMARK                         _______ _______ _______ _____ _____    ______ ____
ROOT
ATOM      1  O   HOH     1      -2.251  -1.908   2.990  0.00  0.00    -0.410 OA
ATOM      2  H   HOH     0      -1.958  -2.429   3.154  0.00  0.00    +0.205 HD
ATOM      3  H   HOH     0      -2.817  -1.936   2.739  0.00  0.00    +0.205 HD
ENDROOT
TORSDOF 0
ENDMDL
MODEL 2
REMARK VINA RESULT:       0.0      3.069      3.069
REMARK  Name = 962
REMARK  0 active torsions:
REMARK  status: ('A' for Active; 'I' for Inactive)
REMARK                            x       y       z     vdW  Elec       q    Type
REMARK                         _______ _______ _______ _____ _____    ______ ____
ROOT
ATOM      1  O   HOH     1      -0.159  -1.965   0.744  0.00  0.00    -0.410 OA
ATOM      2  H   HOH     0       0.134  -2.487   0.909  0.00  0.00    +0.205 HD
ATOM      3  H   HOH     0      -0.725  -1.994   0.493  0.00  0.00    +0.205 HD
ENDROOT
TORSDOF 0
ENDMDL
MODEL 3
REMARK VINA RESULT:       0.0      4.852      4.852
REMARK  Name = 962
REMARK  0 active torsions:
REMARK  status: ('A' for Active; 'I' for Inactive)
REMARK                            x       y       z     vdW  Elec       q    Type
REMARK                         _______ _______ _______ _____ _____    ______ ____
ROOT
ATOM      1  O   HOH     1      -0.345  -5.086  -0.142  0.00  0.00    -0.410 OA
ATOM      2  H   HOH     0      -0.052  -5.607   0.023  0.00  0.00    +0.205 HD
ATOM      3  H   HOH     0      -0.911  -5.114  -0.393  0.00  0.00    +0.205 HD
ENDROOT
TORSDOF 0
ENDMDL
MODEL 4
REMARK VINA RESULT:       0.0      5.962      5.962
REMARK  Name = 962
REMARK  0 active torsions:
REMARK  status: ('A' for Active; 'I' for Inactive)
REMARK                            x       y       z     vdW  Elec       q    Type
REMARK                         _______ _______ _______ _____ _____    ______ ____
ROOT
ATOM      1  O   HOH     1      -3.418  -6.098  -1.087  0.00  0.00    -0.410 OA
ATOM      2  H   HOH     0      -3.125  -6.619  -0.923  0.00  0.00    +0.205 HD
ATOM      3  H   HOH     0      -3.984  -6.127  -1.339  0.00  0.00    +0.205 HD
ENDROOT
TORSDOF 0
ENDMDL
MODEL 5
REMARK VINA RESULT:       0.0      7.561      7.561
REMARK  Name = 962
REMARK  0 active torsions:
REMARK  status: ('A' for Active; 'I' for Inactive)
REMARK                            x       y       z     vdW  Elec       q    Type
REMARK                         _______ _______ _______ _____ _____    ______ ____
ROOT
ATOM      1  O   HOH     1      -5.717  -6.286  -2.107  0.00  0.00    -0.410 OA
ATOM      2  H   HOH     0      -5.425  -6.808  -1.942  0.00  0.00    +0.205 HD
ATOM      3  H   HOH     0      -6.284  -6.315  -2.358  0.00  0.00    +0.205 HD
ENDROOT
TORSDOF 0
ENDMDL
MODEL 6
REMARK VINA RESULT:       0.0      8.055      8.055
REMARK  Name = 962
REMARK  0 active torsions:
REMARK  status: ('A' for Active; 'I' for Inactive)
REMARK                            x       y       z     vdW  Elec       q    Type
REMARK                         _______ _______ _______ _____ _____    ______ ____
ROOT
ATOM      1  O   HOH     1      -7.318  -6.922  -0.761  0.00  0.00    -0.410 OA
ATOM      2  H   HOH     0      -7.025  -7.443  -0.596  0.00  0.00    +0.205 HD
ATOM      3  H   HOH     0      -7.884  -6.950  -1.012  0.00  0.00    +0.205 HD
ENDROOT
TORSDOF 0
ENDMDL
MODEL 7
REMARK VINA RESULT:       0.0     10.639     10.639
REMARK  Name = 962
REMARK  0 active torsions:
REMARK  status: ('A' for Active; 'I' for Inactive)
REMARK                            x       y       z     vdW  Elec       q    Type
REMARK                         _______ _______ _______ _____ _____    ______ ____
ROOT
ATOM      1  O   HOH     1      -8.571  -9.153  -1.566  0.00  0.00    -0.410 OA
ATOM      2  H   HOH     0      -8.279  -9.674  -1.401  0.00  0.00    +0.205 HD
ATOM      3  H   HOH     0      -9.138  -9.181  -1.817  0.00  0.00    +0.205 HD
ENDROOT
TORSDOF 0
ENDMDL
MODEL 8
REMARK VINA RESULT:       0.0     11.556     11.556
REMARK  Name = 962
REMARK  0 active torsions:
REMARK  status: ('A' for Active; 'I' for Inactive)
REMARK                            x       y       z     vdW  Elec       q    Type
REMARK                         _______ _______ _______ _____ _____    ______ ____
ROOT
ATOM      1  O   HOH     1      -9.886 -10.114   0.182  0.00  0.00    -0.410 OA
ATOM      2  H   HOH     0      -9.594 -10.635   0.346  0.00  0.00    +0.205 HD
ATOM      3  H   HOH     0     -10.453 -10.143  -0.070  0.00  0.00    +0.205 HD
ENDROOT
TORSDOF 0
ENDMDL
MODEL 9
REMARK VINA RESULT:       0.0     11.386     11.386
REMARK  Name = 962
REMARK  0 active torsions:
REMARK  status: ('A' for Active; 'I' for Inactive)
REMARK                            x       y       z     vdW  Elec       q    Type
REMARK                         _______ _______ _______ _____ _____    ______ ____
ROOT
ATOM      1  O   HOH     1       4.372 -10.235  -1.065  0.00  0.00    -0.410 OA
ATOM      2  H   HOH     0       4.665 -10.756  -0.901  0.00  0.00    +0.205 HD
ATOM      3  H   HOH     0       3.806 -10.264  -1.317  0.00  0.00    +0.205 HD
ENDROOT
TORSDOF 0
ENDMDL
