MODEL 1
REMARK VINA RESULT:      -8.4      0.000      0.000
REMARK  Name = 16142
REMARK  7 active torsions:
REMARK  status: ('A' for Active; 'I' for Inactive)
REMARK    1  A    between atoms: O_1  and  C_10
REMARK    2  A    between atoms: O_7  and  C_30
REMARK    3  A    between atoms: O_8  and  C_34
REMARK    4  A    between atoms: C_13  and  C_25
REMARK    5  A    between atoms: C_14  and  C_28
REMARK    6  A    between atoms: C_18  and  C_29
REMARK    7  A    between atoms: C_37  and  C_38
REMARK                            x       y       z     vdW  Elec       q    Type
REMARK                         _______ _______ _______ _____ _____    ______ ____
ROOT
ATOM      1  O   UNL     1       2.170  -0.587  -5.004  0.00  0.00    -0.337 OA
ATOM      2  O   UNL     1       0.038  -0.365  -4.781  0.00  0.00    -0.341 OA
ATOM      3  O   UNL     1       0.036  -1.500  -3.239  0.00  0.00    -0.343 OA
ATOM      4  C   UNL     1       1.982   2.620  -9.312  0.00  0.00    +0.075 C 
ATOM      5  C   UNL     1       1.500   2.130  -8.529  0.00  0.00    +0.025 C 
ATOM      6  C   UNL     1       2.014   1.563  -7.885  0.00  0.00    +0.008 C 
ATOM      7  C   UNL     1       3.012   2.518  -9.426  0.00  0.00    +0.004 C 
ATOM      8  C   UNL     1       1.539   1.099  -7.138  0.00  0.00    +0.034 C 
ATOM      9  C   UNL     1       0.549   1.202  -7.034  0.00  0.00    +0.005 C 
ATOM     10  C   UNL     1       3.045   1.446  -7.979  0.00  0.00    +0.005 C 
ATOM     11  C   UNL     1       3.547   1.927  -8.755  0.00  0.00    +0.010 C 
ATOM     12  C   UNL     1       3.297   3.074 -10.251  0.00  0.00    +0.027 C 
ATOM     13  C   UNL     1       0.511   2.233  -8.425  0.00  0.00    +0.007 C 
ATOM     14  C   UNL     1       1.638   3.239 -10.068  0.00  0.00    +0.036 C 
ATOM     15  C   UNL     1       0.036   1.769  -7.678  0.00  0.00    +0.005 C 
ATOM     16  C   UNL     1       2.449   3.519 -10.647  0.00  0.00    +0.011 C 
ATOM     17  C   UNL     1       2.087   0.512  -6.475  0.00  0.00    +0.049 C 
ATOM     18  C   UNL     1       0.040   0.724  -6.261  0.00  0.00    +0.038 C 
ATOM     19  C   UNL     1       4.002   2.419  -9.535  0.00  0.00    +0.014 C 
ATOM     20  C   UNL     1       1.599   0.025  -5.694  0.00  0.00    +0.152 C 
ATOM     21  C   UNL     1       0.569   0.132  -5.586  0.00  0.00    +0.151 C 
ATOM     22  C   UNL     1       1.662  -1.094  -4.190  0.00  0.00    +0.247 C 
ATOM     23  C   UNL     1       0.588  -0.982  -4.078  0.00  0.00    +0.314 C 
ATOM     24  C   UNL     1       2.257  -1.731  -3.471  0.00  0.00    +0.181 C 
ATOM     25  C   UNL     1       1.727  -2.259  -2.624  0.00  0.00    +0.068 C 
ATOM     26  C   UNL     1       0.609  -2.142  -2.507  0.00  0.00    +0.121 C 
ATOM     27  C   UNL     1       0.130  -2.605  -1.761  0.00  0.00    +0.038 C 
ENDROOT
BRANCH  12  30
ATOM     28  O   UNL     1       5.598   2.893 -11.419  0.00  0.00    -0.457 OA
ATOM     29  O   UNL     1       6.546   4.289 -10.846  0.00  0.00    -0.246 OA
ATOM     30  C   UNL     1       4.227   3.166 -10.605  0.00  0.00    -0.022 C 
ATOM     31  C   UNL     1       4.675   2.548 -11.250  0.00  0.00    +0.264 C 
ATOM     32  C   UNL     1       4.873   3.894 -10.375  0.00  0.00    +0.094 C 
ATOM     33  C   UNL     1       5.721   3.725 -10.878  0.00  0.00    +0.332 C 
ENDBRANCH  12  30
BRANCH   4  34
ATOM     34  O   UNL     1       0.993   2.718  -9.202  0.00  0.00    -0.388 OA
ATOM     35  H   UNL     1       0.752   3.265  -9.038  0.00  0.00    +0.210 HD
ENDBRANCH   4  34
BRANCH   8  37
ATOM     36  O   UNL     1       2.962   1.129  -6.151  0.00  0.00    -0.300 OA
ATOM     37  C   UNL     1       2.475   0.799  -6.960  0.00  0.00    +0.230 C 
ENDBRANCH   8  37
BRANCH  22  38
ATOM     38  O   UNL     1       2.651  -1.197  -4.294  0.00  0.00    -0.359 OA
ATOM     39  H   UNL     1       2.906  -1.189  -4.859  0.00  0.00    +0.213 HD
ENDBRANCH  22  38
BRANCH  24  40
ATOM     40  O   UNL     1       3.246  -1.827  -3.584  0.00  0.00    -0.386 OA
ATOM     41  H   UNL     1       3.482  -2.351  -3.817  0.00  0.00    +0.210 HD
ENDBRANCH  24  40
TORSDOF 5
ENDMDL
MODEL 2
REMARK VINA RESULT:      -8.2     10.311     13.515
REMARK  Name = 16142
REMARK  7 active torsions:
REMARK  status: ('A' for Active; 'I' for Inactive)
REMARK    1  A    between atoms: O_1  and  C_10
REMARK    2  A    between atoms: O_7  and  C_30
REMARK    3  A    between atoms: O_8  and  C_34
REMARK    4  A    between atoms: C_13  and  C_25
REMARK    5  A    between atoms: C_14  and  C_28
REMARK    6  A    between atoms: C_18  and  C_29
REMARK    7  A    between atoms: C_37  and  C_38
REMARK                            x       y       z     vdW  Elec       q    Type
REMARK                         _______ _______ _______ _____ _____    ______ ____
ROOT
ATOM      1  O   UNL     1      -3.775  -5.273   5.878  0.00  0.00    -0.337 OA
ATOM      2  O   UNL     1      -1.888  -6.298   5.697  0.00  0.00    -0.341 OA
ATOM      3  O   UNL     1      -2.376  -7.533   7.076  0.00  0.00    -0.343 OA
ATOM      4  C   UNL     1      -2.233  -1.898   1.990  0.00  0.00    +0.075 C 
ATOM      5  C   UNL     1      -2.040  -2.716   2.605  0.00  0.00    +0.025 C 
ATOM      6  C   UNL     1      -2.716  -3.028   3.273  0.00  0.00    +0.008 C 
ATOM      7  C   UNL     1      -3.143  -1.397   2.072  0.00  0.00    +0.004 C 
ATOM      8  C   UNL     1      -2.517  -3.815   3.857  0.00  0.00    +0.034 C 
ATOM      9  C   UNL     1      -1.642  -4.291   3.773  0.00  0.00    +0.005 C 
ATOM     10  C   UNL     1      -3.633  -2.542   3.372  0.00  0.00    +0.005 C 
ATOM     11  C   UNL     1      -3.847  -1.722   2.768  0.00  0.00    +0.010 C 
ATOM     12  C   UNL     1      -3.142  -0.624   1.385  0.00  0.00    +0.027 C 
ATOM     13  C   UNL     1      -1.165  -3.192   2.522  0.00  0.00    +0.007 C 
ATOM     14  C   UNL     1      -1.677  -1.429   1.253  0.00  0.00    +0.036 C 
ATOM     15  C   UNL     1      -0.965  -3.980   3.105  0.00  0.00    +0.005 C 
ATOM     16  C   UNL     1      -2.238  -0.643   0.879  0.00  0.00    +0.011 C 
ATOM     17  C   UNL     1      -3.231  -4.127   4.547  0.00  0.00    +0.049 C 
ATOM     18  C   UNL     1      -1.420  -5.112   4.374  0.00  0.00    +0.038 C 
ATOM     19  C   UNL     1      -4.017  -0.917   2.151  0.00  0.00    +0.014 C 
ATOM     20  C   UNL     1      -3.031  -4.947   5.159  0.00  0.00    +0.152 C 
ATOM     21  C   UNL     1      -2.120  -5.442   5.072  0.00  0.00    +0.151 C 
ATOM     22  C   UNL     1      -3.567  -6.126   6.515  0.00  0.00    +0.247 C 
ATOM     23  C   UNL     1      -2.616  -6.642   6.424  0.00  0.00    +0.314 C 
ATOM     24  C   UNL     1      -4.342  -6.465   7.265  0.00  0.00    +0.181 C 
ATOM     25  C   UNL     1      -4.125  -7.354   7.928  0.00  0.00    +0.068 C 
ATOM     26  C   UNL     1      -3.135  -7.891   7.833  0.00  0.00    +0.121 C 
ATOM     27  C   UNL     1      -2.932  -8.679   8.415  0.00  0.00    +0.038 C 
ENDROOT
BRANCH  12  30
ATOM     28  O   UNL     1      -5.214   0.739   0.648  0.00  0.00    -0.457 OA
ATOM     29  O   UNL     1      -5.214   2.209   1.656  0.00  0.00    -0.246 OA
ATOM     30  C   UNL     1      -3.884   0.029   1.234  0.00  0.00    -0.022 C 
ATOM     31  C   UNL     1      -4.626  -0.066   0.571  0.00  0.00    +0.264 C 
ATOM     32  C   UNL     1      -4.014   0.893   1.722  0.00  0.00    +0.094 C 
ATOM     33  C   UNL     1      -4.837   1.332   1.359  0.00  0.00    +0.332 C 
ENDBRANCH  12  30
BRANCH   4  34
ATOM     34  O   UNL     1      -1.360  -2.379   1.912  0.00  0.00    -0.388 OA
ATOM     35  H   UNL     1      -1.011  -2.307   1.405  0.00  0.00    +0.210 HD
ENDBRANCH   4  34
BRANCH   8  37
ATOM     36  O   UNL     1      -3.557  -3.195   5.095  0.00  0.00    -0.300 OA
ATOM     37  C   UNL     1      -3.434  -3.585   4.183  0.00  0.00    +0.230 C 
ENDBRANCH   8  37
BRANCH  22  38
ATOM     38  O   UNL     1      -4.442  -5.650   6.599  0.00  0.00    -0.359 OA
ATOM     39  H   UNL     1      -4.721  -5.608   7.152  0.00  0.00    +0.213 HD
ENDBRANCH  22  38
BRANCH  24  40
ATOM     40  O   UNL     1      -5.214  -5.982   7.340  0.00  0.00    -0.386 OA
ATOM     41  H   UNL     1      -5.249  -5.455   7.665  0.00  0.00    +0.210 HD
ENDBRANCH  24  40
TORSDOF 5
ENDMDL
MODEL 3
REMARK VINA RESULT:      -8.1     10.013     13.954
REMARK  Name = 16142
REMARK  7 active torsions:
REMARK  status: ('A' for Active; 'I' for Inactive)
REMARK    1  A    between atoms: O_1  and  C_10
REMARK    2  A    between atoms: O_7  and  C_30
REMARK    3  A    between atoms: O_8  and  C_34
REMARK    4  A    between atoms: C_13  and  C_25
REMARK    5  A    between atoms: C_14  and  C_28
REMARK    6  A    between atoms: C_18  and  C_29
REMARK    7  A    between atoms: C_37  and  C_38
REMARK                            x       y       z     vdW  Elec       q    Type
REMARK                         _______ _______ _______ _____ _____    ______ ____
ROOT
ATOM      1  O   UNL     1      -3.714  -6.058   5.094  0.00  0.00    -0.337 OA
ATOM      2  O   UNL     1      -3.790  -5.574   7.192  0.00  0.00    -0.341 OA
ATOM      3  O   UNL     1      -3.830  -7.429   7.665  0.00  0.00    -0.343 OA
ATOM      4  C   UNL     1      -3.608  -0.806   3.960  0.00  0.00    +0.075 C 
ATOM      5  C   UNL     1      -3.644  -1.580   4.657  0.00  0.00    +0.025 C 
ATOM      6  C   UNL     1      -3.644  -2.536   4.364  0.00  0.00    +0.008 C 
ATOM      7  C   UNL     1      -3.571  -1.032   2.944  0.00  0.00    +0.004 C 
ATOM      8  C   UNL     1      -3.679  -3.267   5.045  0.00  0.00    +0.034 C 
ATOM      9  C   UNL     1      -3.714  -3.043   6.018  0.00  0.00    +0.005 C 
ATOM     10  C   UNL     1      -3.608  -2.785   3.353  0.00  0.00    +0.005 C 
ATOM     11  C   UNL     1      -3.571  -2.029   2.638  0.00  0.00    +0.010 C 
ATOM     12  C   UNL     1      -3.540  -0.140   2.421  0.00  0.00    +0.027 C 
ATOM     13  C   UNL     1      -3.679  -1.355   5.631  0.00  0.00    +0.007 C 
ATOM     14  C   UNL     1      -3.599   0.225   4.056  0.00  0.00    +0.036 C 
ATOM     15  C   UNL     1      -3.714  -2.087   6.312  0.00  0.00    +0.005 C 
ATOM     16  C   UNL     1      -3.558   0.636   3.107  0.00  0.00    +0.011 C 
ATOM     17  C   UNL     1      -3.679  -4.258   4.724  0.00  0.00    +0.049 C 
ATOM     18  C   UNL     1      -3.751  -3.794   6.739  0.00  0.00    +0.038 C 
ATOM     19  C   UNL     1      -3.536  -1.250   1.968  0.00  0.00    +0.014 C 
ATOM     20  C   UNL     1      -3.715  -5.026   5.427  0.00  0.00    +0.152 C 
ATOM     21  C   UNL     1      -3.752  -4.793   6.441  0.00  0.00    +0.151 C 
ATOM     22  C   UNL     1      -3.752  -6.858   5.826  0.00  0.00    +0.247 C 
ATOM     23  C   UNL     1      -3.790  -6.614   6.883  0.00  0.00    +0.314 C 
ATOM     24  C   UNL     1      -3.751  -7.934   5.478  0.00  0.00    +0.181 C 
ATOM     25  C   UNL     1      -3.791  -8.767   6.241  0.00  0.00    +0.068 C 
ATOM     26  C   UNL     1      -3.831  -8.512   7.342  0.00  0.00    +0.121 C 
ATOM     27  C   UNL     1      -3.866  -9.242   8.026  0.00  0.00    +0.038 C 
ENDROOT
BRANCH  12  30
ATOM     28  O   UNL     1      -2.964  -0.044  -0.099  0.00  0.00    -0.457 OA
ATOM     29  O   UNL     1      -4.445   0.519  -0.916  0.00  0.00    -0.246 OA
ATOM     30  C   UNL     1      -3.500  -0.042   1.427  0.00  0.00    -0.022 C 
ATOM     31  C   UNL     1      -2.707  -0.231   0.848  0.00  0.00    +0.264 C 
ATOM     32  C   UNL     1      -4.248   0.262   0.836  0.00  0.00    +0.094 C 
ATOM     33  C   UNL     1      -3.916   0.261  -0.108  0.00  0.00    +0.332 C 
ENDBRANCH  12  30
BRANCH   4  34
ATOM     34  O   UNL     1      -3.643  -0.590   4.935  0.00  0.00    -0.388 OA
ATOM     35  H   UNL     1      -3.518  -1.029   5.355  0.00  0.00    +0.210 HD
ENDBRANCH   4  34
BRANCH   8  37
ATOM     36  O   UNL     1      -2.829  -4.327   3.970  0.00  0.00    -0.300 OA
ATOM     37  C   UNL     1      -3.653  -3.812   4.207  0.00  0.00    +0.230 C 
ENDBRANCH   8  37
BRANCH  22  38
ATOM     38  O   UNL     1      -3.717  -7.083   4.852  0.00  0.00    -0.359 OA
ATOM     39  H   UNL     1      -3.180  -7.251   4.592  0.00  0.00    +0.213 HD
ENDBRANCH  22  38
BRANCH  24  40
ATOM     40  O   UNL     1      -3.716  -8.147   4.502  0.00  0.00    -0.386 OA
ATOM     41  H   UNL     1      -3.437  -8.665   4.308  0.00  0.00    +0.210 HD
ENDBRANCH  24  40
TORSDOF 5
ENDMDL
MODEL 4
REMARK VINA RESULT:      -7.9      5.474     10.433
REMARK  Name = 16142
REMARK  7 active torsions:
REMARK  status: ('A' for Active; 'I' for Inactive)
REMARK    1  A    between atoms: O_1  and  C_10
REMARK    2  A    between atoms: O_7  and  C_30
REMARK    3  A    between atoms: O_8  and  C_34
REMARK    4  A    between atoms: C_13  and  C_25
REMARK    5  A    between atoms: C_14  and  C_28
REMARK    6  A    between atoms: C_18  and  C_29
REMARK    7  A    between atoms: C_37  and  C_38
REMARK                            x       y       z     vdW  Elec       q    Type
REMARK                         _______ _______ _______ _____ _____    ______ ____
ROOT
ATOM      1  O   UNL     1       1.455  -2.055  -2.586  0.00  0.00    -0.337 OA
ATOM      2  O   UNL     1       1.977  -4.143  -2.468  0.00  0.00    -0.341 OA
ATOM      3  O   UNL     1       3.230  -3.957  -3.903  0.00  0.00    -0.343 OA
ATOM      4  C   UNL     1      -2.015  -2.767   1.456  0.00  0.00    +0.075 C 
ATOM      5  C   UNL     1      -1.302  -3.149   0.799  0.00  0.00    +0.025 C 
ATOM      6  C   UNL     1      -0.861  -2.561   0.121  0.00  0.00    +0.008 C 
ATOM      7  C   UNL     1      -2.273  -1.759   1.404  0.00  0.00    +0.004 C 
ATOM      8  C   UNL     1      -0.178  -2.941  -0.502  0.00  0.00    +0.034 C 
ATOM      9  C   UNL     1       0.065  -3.910  -0.447  0.00  0.00    +0.005 C 
ATOM     10  C   UNL     1      -1.103  -1.550   0.052  0.00  0.00    +0.005 C 
ATOM     11  C   UNL     1      -1.813  -1.146   0.698  0.00  0.00    +0.010 C 
ATOM     12  C   UNL     1      -2.988  -1.577   2.129  0.00  0.00    +0.027 C 
ATOM     13  C   UNL     1      -1.059  -4.118   0.854  0.00  0.00    +0.007 C 
ATOM     14  C   UNL     1      -2.574  -3.200   2.212  0.00  0.00    +0.036 C 
ATOM     15  C   UNL     1      -0.376  -4.498   0.231  0.00  0.00    +0.005 C 
ATOM     16  C   UNL     1      -3.175  -2.466   2.628  0.00  0.00    +0.011 C 
ATOM     17  C   UNL     1       0.273  -2.317  -1.203  0.00  0.00    +0.049 C 
ATOM     18  C   UNL     1       0.774  -4.321  -1.090  0.00  0.00    +0.038 C 
ATOM     19  C   UNL     1      -2.520  -0.791   1.355  0.00  0.00    +0.014 C 
ATOM     20  C   UNL     1       0.985  -2.706  -1.856  0.00  0.00    +0.152 C 
ATOM     21  C   UNL     1       1.238  -3.714  -1.799  0.00  0.00    +0.151 C 
ATOM     22  C   UNL     1       2.197  -2.460  -3.266  0.00  0.00    +0.247 C 
ATOM     23  C   UNL     1       2.460  -3.512  -3.206  0.00  0.00    +0.314 C 
ATOM     24  C   UNL     1       2.686  -1.782  -4.027  0.00  0.00    +0.181 C 
ATOM     25  C   UNL     1       3.459  -2.204  -4.735  0.00  0.00    +0.068 C 
ATOM     26  C   UNL     1       3.732  -3.299  -4.673  0.00  0.00    +0.121 C 
ATOM     27  C   UNL     1       4.415  -3.683  -5.295  0.00  0.00    +0.038 C 
ENDROOT
BRANCH  12  30
ATOM     28  O   UNL     1      -3.774   0.737   2.977  0.00  0.00    -0.457 OA
ATOM     29  O   UNL     1      -5.153   1.192   1.943  0.00  0.00    -0.246 OA
ATOM     30  C   UNL     1      -3.425  -0.697   2.316  0.00  0.00    -0.022 C 
ATOM     31  C   UNL     1      -3.160  -0.049   3.030  0.00  0.00    +0.264 C 
ATOM     32  C   UNL     1      -4.204  -0.311   1.822  0.00  0.00    +0.094 C 
ATOM     33  C   UNL     1      -4.420   0.576   2.231  0.00  0.00    +0.332 C 
ENDBRANCH  12  30
BRANCH   4  34
ATOM     34  O   UNL     1      -1.767  -3.735   1.504  0.00  0.00    -0.388 OA
ATOM     35  H   UNL     1      -1.984  -4.132   1.080  0.00  0.00    +0.210 HD
ENDBRANCH   4  34
BRANCH   8  37
ATOM     36  O   UNL     1      -0.520  -1.763  -1.725  0.00  0.00    -0.300 OA
ATOM     37  C   UNL     1      -0.183  -1.991  -0.811  0.00  0.00    +0.230 C 
ENDBRANCH   8  37
BRANCH  22  38
ATOM     38  O   UNL     1       1.954  -1.491  -3.321  0.00  0.00    -0.359 OA
ATOM     39  H   UNL     1       2.400  -1.060  -3.326  0.00  0.00    +0.213 HD
ENDBRANCH  22  38
BRANCH  24  40
ATOM     40  O   UNL     1       2.436  -0.815  -4.073  0.00  0.00    -0.386 OA
ATOM     41  H   UNL     1       2.356  -0.490  -3.551  0.00  0.00    +0.210 HD
ENDBRANCH  24  40
TORSDOF 5
ENDMDL
MODEL 5
REMARK VINA RESULT:      -7.7      3.473      7.073
REMARK  Name = 16142
REMARK  7 active torsions:
REMARK  status: ('A' for Active; 'I' for Inactive)
REMARK    1  A    between atoms: O_1  and  C_10
REMARK    2  A    between atoms: O_7  and  C_30
REMARK    3  A    between atoms: O_8  and  C_34
REMARK    4  A    between atoms: C_13  and  C_25
REMARK    5  A    between atoms: C_14  and  C_28
REMARK    6  A    between atoms: C_18  and  C_29
REMARK    7  A    between atoms: C_37  and  C_38
REMARK                            x       y       z     vdW  Elec       q    Type
REMARK                         _______ _______ _______ _____ _____    ______ ____
ROOT
ATOM      1  O   UNL     1       7.294   3.766  -7.303  0.00  0.00    -0.337 OA
ATOM      2  O   UNL     1       8.333   4.519  -9.034  0.00  0.00    -0.341 OA
ATOM      3  O   UNL     1       9.922   4.816  -8.007  0.00  0.00    -0.343 OA
ATOM      4  C   UNL     1       2.930   3.002 -10.345  0.00  0.00    +0.075 C 
ATOM      5  C   UNL     1       3.919   3.313 -10.246  0.00  0.00    +0.025 C 
ATOM      6  C   UNL     1       4.387   3.265  -9.363  0.00  0.00    +0.008 C 
ATOM      7  C   UNL     1       2.421   2.637  -9.512  0.00  0.00    +0.004 C 
ATOM      8  C   UNL     1       5.337   3.567  -9.284  0.00  0.00    +0.034 C 
ATOM      9  C   UNL     1       5.819   3.916 -10.087  0.00  0.00    +0.005 C 
ATOM     10  C   UNL     1       3.898   2.903  -8.518  0.00  0.00    +0.005 C 
ATOM     11  C   UNL     1       2.908   2.587  -8.593  0.00  0.00    +0.010 C 
ATOM     12  C   UNL     1       1.463   2.384  -9.812  0.00  0.00    +0.027 C 
ATOM     13  C   UNL     1       4.402   3.662 -11.049  0.00  0.00    +0.007 C 
ATOM     14  C   UNL     1       2.282   2.972 -11.152  0.00  0.00    +0.036 C 
ATOM     15  C   UNL     1       5.352   3.964 -10.969  0.00  0.00    +0.005 C 
ATOM     16  C   UNL     1       1.377   2.590 -10.824  0.00  0.00    +0.011 C 
ATOM     17  C   UNL     1       5.810   3.511  -8.358  0.00  0.00    +0.049 C 
ATOM     18  C   UNL     1       6.809   4.235 -10.019  0.00  0.00    +0.038 C 
ATOM     19  C   UNL     1       1.932   2.286  -8.713  0.00  0.00    +0.014 C 
ATOM     20  C   UNL     1       6.800   3.824  -8.267  0.00  0.00    +0.152 C 
ATOM     21  C   UNL     1       7.303   4.188  -9.103  0.00  0.00    +0.151 C 
ATOM     22  C   UNL     1       8.324   4.091  -7.208  0.00  0.00    +0.247 C 
ATOM     23  C   UNL     1       8.848   4.471  -8.080  0.00  0.00    +0.314 C 
ATOM     24  C   UNL     1       8.839   4.031  -6.203  0.00  0.00    +0.181 C 
ATOM     25  C   UNL     1       9.912   4.370  -6.104  0.00  0.00    +0.068 C 
ATOM     26  C   UNL     1      10.457   4.765  -7.013  0.00  0.00    +0.121 C 
ATOM     27  C   UNL     1      11.408   5.068  -6.937  0.00  0.00    +0.038 C 
ENDROOT
BRANCH  12  30
ATOM     28  O   UNL     1      -0.475   1.884  -8.173  0.00  0.00    -0.457 OA
ATOM     29  O   UNL     1      -0.688   0.114  -8.196  0.00  0.00    -0.246 OA
ATOM     30  C   UNL     1       0.745   2.006  -9.228  0.00  0.00    -0.022 C 
ATOM     31  C   UNL     1       0.135   2.529  -8.632  0.00  0.00    +0.264 C 
ATOM     32  C   UNL     1       0.511   1.038  -9.137  0.00  0.00    +0.094 C 
ATOM     33  C   UNL     1      -0.244   0.962  -8.485  0.00  0.00    +0.332 C 
ENDBRANCH  12  30
BRANCH   4  34
ATOM     34  O   UNL     1       3.419   3.353 -11.143  0.00  0.00    -0.388 OA
ATOM     35  H   UNL     1       3.964   3.106 -11.306  0.00  0.00    +0.210 HD
ENDBRANCH   4  34
BRANCH   8  37
ATOM     36  O   UNL     1       5.137   3.976  -7.612  0.00  0.00    -0.300 OA
ATOM     37  C   UNL     1       5.164   3.289  -8.339  0.00  0.00    +0.230 C 
ENDBRANCH   8  37
BRANCH  22  38
ATOM     38  O   UNL     1       7.842   3.742  -6.405  0.00  0.00    -0.359 OA
ATOM     39  H   UNL     1       7.330   4.028  -6.202  0.00  0.00    +0.213 HD
ENDBRANCH  22  38
BRANCH  24  40
ATOM     40  O   UNL     1       8.347   3.680  -5.407  0.00  0.00    -0.386 OA
ATOM     41  H   UNL     1       8.658   3.405  -4.947  0.00  0.00    +0.210 HD
ENDBRANCH  24  40
TORSDOF 5
ENDMDL
MODEL 6
REMARK VINA RESULT:      -7.5      7.597      9.532
REMARK  Name = 16142
REMARK  7 active torsions:
REMARK  status: ('A' for Active; 'I' for Inactive)
REMARK    1  A    between atoms: O_1  and  C_10
REMARK    2  A    between atoms: O_7  and  C_30
REMARK    3  A    between atoms: O_8  and  C_34
REMARK    4  A    between atoms: C_13  and  C_25
REMARK    5  A    between atoms: C_14  and  C_28
REMARK    6  A    between atoms: C_18  and  C_29
REMARK    7  A    between atoms: C_37  and  C_38
REMARK                            x       y       z     vdW  Elec       q    Type
REMARK                         _______ _______ _______ _____ _____    ______ ____
ROOT
ATOM      1  O   UNL     1      -2.222  -0.820  -0.054  0.00  0.00    -0.337 OA
ATOM      2  O   UNL     1      -3.001  -1.725   1.740  0.00  0.00    -0.341 OA
ATOM      3  O   UNL     1      -4.145  -0.222   2.054  0.00  0.00    -0.343 OA
ATOM      4  C   UNL     1       0.920  -5.122  -0.772  0.00  0.00    +0.075 C 
ATOM      5  C   UNL     1       0.200  -4.610  -0.218  0.00  0.00    +0.025 C 
ATOM      6  C   UNL     1      -0.130  -3.712  -0.509  0.00  0.00    +0.008 C 
ATOM      7  C   UNL     1       1.301  -4.691  -1.640  0.00  0.00    +0.004 C 
ATOM      8  C   UNL     1      -0.821  -3.234   0.032  0.00  0.00    +0.034 C 
ATOM      9  C   UNL     1      -1.183  -3.653   0.864  0.00  0.00    +0.005 C 
ATOM     10  C   UNL     1       0.238  -3.262  -1.374  0.00  0.00    +0.005 C 
ATOM     11  C   UNL     1       0.958  -3.755  -1.943  0.00  0.00    +0.010 C 
ATOM     12  C   UNL     1       1.995  -5.346  -2.040  0.00  0.00    +0.027 C 
ATOM     13  C   UNL     1      -0.162  -5.030   0.614  0.00  0.00    +0.007 C 
ATOM     14  C   UNL     1       1.381  -6.039  -0.643  0.00  0.00    +0.036 C 
ATOM     15  C   UNL     1      -0.853  -4.551   1.156  0.00  0.00    +0.005 C 
ATOM     16  C   UNL     1       2.045  -6.178  -1.426  0.00  0.00    +0.011 C 
ATOM     17  C   UNL     1      -1.154  -2.299  -0.284  0.00  0.00    +0.049 C 
ATOM     18  C   UNL     1      -1.903  -3.167   1.439  0.00  0.00    +0.038 C 
ATOM     19  C   UNL     1       1.667  -4.277  -2.474  0.00  0.00    +0.014 C 
ATOM     20  C   UNL     1      -1.874  -1.794   0.275  0.00  0.00    +0.152 C 
ATOM     21  C   UNL     1      -2.251  -2.230   1.142  0.00  0.00    +0.151 C 
ATOM     22  C   UNL     1      -2.971  -0.294   0.528  0.00  0.00    +0.247 C 
ATOM     23  C   UNL     1      -3.364  -0.750   1.431  0.00  0.00    +0.314 C 
ATOM     24  C   UNL     1      -3.333   0.720   0.185  0.00  0.00    +0.181 C 
ATOM     25  C   UNL     1      -4.114   1.268   0.791  0.00  0.00    +0.068 C 
ATOM     26  C   UNL     1      -4.523   0.793   1.732  0.00  0.00    +0.121 C 
ATOM     27  C   UNL     1      -5.214   1.269   2.276  0.00  0.00    +0.038 C 
ENDROOT
BRANCH  12  30
ATOM     28  O   UNL     1       2.965  -5.159  -4.432  0.00  0.00    -0.457 OA
ATOM     29  O   UNL     1       4.597  -4.468  -4.243  0.00  0.00    -0.246 OA
ATOM     30  C   UNL     1       2.526  -5.201  -2.875  0.00  0.00    -0.022 C 
ATOM     31  C   UNL     1       2.226  -5.409  -3.807  0.00  0.00    +0.264 C 
ATOM     32  C   UNL     1       3.450  -4.824  -2.925  0.00  0.00    +0.094 C 
ATOM     33  C   UNL     1       3.722  -4.798  -3.888  0.00  0.00    +0.332 C 
ENDBRANCH  12  30
BRANCH   4  34
ATOM     34  O   UNL     1       0.553  -5.535   0.062  0.00  0.00    -0.388 OA
ATOM     35  H   UNL     1       0.190  -6.036   0.026  0.00  0.00    +0.210 HD
ENDBRANCH   4  34
BRANCH   8  37
ATOM     36  O   UNL     1      -0.214  -1.704  -0.510  0.00  0.00    -0.300 OA
ATOM     37  C   UNL     1      -0.683  -2.568  -0.700  0.00  0.00    +0.230 C 
ENDBRANCH   8  37
BRANCH  22  38
ATOM     38  O   UNL     1      -2.609   0.125  -0.305  0.00  0.00    -0.359 OA
ATOM     39  H   UNL     1      -2.250   0.629  -0.267  0.00  0.00    +0.213 HD
ENDBRANCH  22  38
BRANCH  24  40
ATOM     40  O   UNL     1      -2.964   1.130  -0.649  0.00  0.00    -0.386 OA
ATOM     41  H   UNL     1      -3.347   1.396  -1.059  0.00  0.00    +0.210 HD
ENDBRANCH  24  40
TORSDOF 5
ENDMDL
MODEL 7
REMARK VINA RESULT:      -7.3     10.342     14.156
REMARK  Name = 16142
REMARK  7 active torsions:
REMARK  status: ('A' for Active; 'I' for Inactive)
REMARK    1  A    between atoms: O_1  and  C_10
REMARK    2  A    between atoms: O_7  and  C_30
REMARK    3  A    between atoms: O_8  and  C_34
REMARK    4  A    between atoms: C_13  and  C_25
REMARK    5  A    between atoms: C_14  and  C_28
REMARK    6  A    between atoms: C_18  and  C_29
REMARK    7  A    between atoms: C_37  and  C_38
REMARK                            x       y       z     vdW  Elec       q    Type
REMARK                         _______ _______ _______ _____ _____    ______ ____
ROOT
ATOM      1  O   UNL     1      -2.974  -1.554   1.965  0.00  0.00    -0.337 OA
ATOM      2  O   UNL     1      -4.576  -0.965   3.281  0.00  0.00    -0.341 OA
ATOM      3  O   UNL     1      -4.937   0.587   2.220  0.00  0.00    -0.343 OA
ATOM      4  C   UNL     1      -2.106  -5.857   5.064  0.00  0.00    +0.075 C 
ATOM      5  C   UNL     1      -2.638  -4.986   4.856  0.00  0.00    +0.025 C 
ATOM      6  C   UNL     1      -2.415  -4.426   4.058  0.00  0.00    +0.008 C 
ATOM      7  C   UNL     1      -1.330  -6.148   4.433  0.00  0.00    +0.004 C 
ATOM      8  C   UNL     1      -2.935  -3.593   3.871  0.00  0.00    +0.034 C 
ATOM      9  C   UNL     1      -3.678  -3.320   4.482  0.00  0.00    +0.005 C 
ATOM     10  C   UNL     1      -1.644  -4.698   3.412  0.00  0.00    +0.005 C 
ATOM     11  C   UNL     1      -1.098  -5.565   3.601  0.00  0.00    +0.010 C 
ATOM     12  C   UNL     1      -0.931  -7.027   4.805  0.00  0.00    +0.027 C 
ATOM     13  C   UNL     1      -3.381  -4.713   5.467  0.00  0.00    +0.007 C 
ATOM     14  C   UNL     1      -2.179  -6.559   5.822  0.00  0.00    +0.036 C 
ATOM     15  C   UNL     1      -3.901  -3.879   5.279  0.00  0.00    +0.005 C 
ATOM     16  C   UNL     1      -1.454  -7.281   5.662  0.00  0.00    +0.011 C 
ATOM     17  C   UNL     1      -2.691  -3.020   3.036  0.00  0.00    +0.049 C 
ATOM     18  C   UNL     1      -4.229  -2.454   4.299  0.00  0.00    +0.038 C 
ATOM     19  C   UNL     1      -0.586  -6.428   3.826  0.00  0.00    +0.014 C 
ATOM     20  C   UNL     1      -3.228  -2.151   2.834  0.00  0.00    +0.152 C 
ATOM     21  C   UNL     1      -4.002  -1.866   3.470  0.00  0.00    +0.151 C 
ATOM     22  C   UNL     1      -3.533  -0.648   1.755  0.00  0.00    +0.247 C 
ATOM     23  C   UNL     1      -4.340  -0.351   2.418  0.00  0.00    +0.314 C 
ATOM     24  C   UNL     1      -3.269  -0.026   0.849  0.00  0.00    +0.181 C 
ATOM     25  C   UNL     1      -3.851   0.917   0.630  0.00  0.00    +0.068 C 
ATOM     26  C   UNL     1      -4.692   1.226   1.321  0.00  0.00    +0.121 C 
ATOM     27  C   UNL     1      -5.214   2.059   1.136  0.00  0.00    +0.038 C 
ENDROOT
BRANCH  12  30
ATOM     28  O   UNL     1       0.677  -8.574   3.495  0.00  0.00    -0.457 OA
ATOM     29  O   UNL     1       2.307  -8.233   4.130  0.00  0.00    -0.246 OA
ATOM     30  C   UNL     1      -0.172  -7.543   4.407  0.00  0.00    -0.022 C 
ATOM     31  C   UNL     1      -0.243  -8.232   3.686  0.00  0.00    +0.264 C 
ATOM     32  C   UNL     1       0.792  -7.459   4.662  0.00  0.00    +0.094 C 
ATOM     33  C   UNL     1       1.317  -8.097   4.097  0.00  0.00    +0.332 C 
ENDBRANCH  12  30
BRANCH   4  34
ATOM     34  O   UNL     1      -2.850  -5.577   5.670  0.00  0.00    -0.388 OA
ATOM     35  H   UNL     1      -3.389  -5.883   5.661  0.00  0.00    +0.210 HD
ENDBRANCH   4  34
BRANCH   8  37
ATOM     36  O   UNL     1      -2.623  -3.754   2.174  0.00  0.00    -0.300 OA
ATOM     37  C   UNL     1      -2.296  -3.574   3.103  0.00  0.00    +0.230 C 
ENDBRANCH   8  37
BRANCH  22  38
ATOM     38  O   UNL     1      -2.790  -0.922   1.144  0.00  0.00    -0.359 OA
ATOM     39  H   UNL     1      -2.356  -0.510   0.980  0.00  0.00    +0.213 HD
ENDBRANCH  22  38
BRANCH  24  40
ATOM     40  O   UNL     1      -2.524  -0.309   0.244  0.00  0.00    -0.386 OA
ATOM     41  H   UNL     1      -2.625  -0.371  -0.364  0.00  0.00    +0.210 HD
ENDBRANCH  24  40
TORSDOF 5
ENDMDL
MODEL 8
REMARK VINA RESULT:      -7.3     11.097     15.519
REMARK  Name = 16142
REMARK  7 active torsions:
REMARK  status: ('A' for Active; 'I' for Inactive)
REMARK    1  A    between atoms: O_1  and  C_10
REMARK    2  A    between atoms: O_7  and  C_30
REMARK    3  A    between atoms: O_8  and  C_34
REMARK    4  A    between atoms: C_13  and  C_25
REMARK    5  A    between atoms: C_14  and  C_28
REMARK    6  A    between atoms: C_18  and  C_29
REMARK    7  A    between atoms: C_37  and  C_38
REMARK                            x       y       z     vdW  Elec       q    Type
REMARK                         _______ _______ _______ _____ _____    ______ ____
ROOT
ATOM      1  O   UNL     1      -2.470  -1.237   3.614  0.00  0.00    -0.337 OA
ATOM      2  O   UNL     1      -4.614  -1.404   3.754  0.00  0.00    -0.341 OA
ATOM      3  O   UNL     1      -4.851   0.017   2.493  0.00  0.00    -0.343 OA
ATOM      4  C   UNL     1      -2.000  -5.242   7.167  0.00  0.00    +0.075 C 
ATOM      5  C   UNL     1      -2.596  -4.604   6.599  0.00  0.00    +0.025 C 
ATOM      6  C   UNL     1      -2.185  -3.921   5.995  0.00  0.00    +0.008 C 
ATOM      7  C   UNL     1      -0.963  -5.168   7.105  0.00  0.00    +0.004 C 
ATOM      8  C   UNL     1      -2.770  -3.315   5.455  0.00  0.00    +0.034 C 
ATOM      9  C   UNL     1      -3.764  -3.392   5.520  0.00  0.00    +0.005 C 
ATOM     10  C   UNL     1      -1.150  -3.828   5.917  0.00  0.00    +0.005 C 
ATOM     11  C   UNL     1      -0.535  -4.456   6.476  0.00  0.00    +0.010 C 
ATOM     12  C   UNL     1      -0.556  -5.879   7.737  0.00  0.00    +0.027 C 
ATOM     13  C   UNL     1      -3.591  -4.681   6.663  0.00  0.00    +0.007 C 
ATOM     14  C   UNL     1      -2.225  -5.999   7.838  0.00  0.00    +0.036 C 
ATOM     15  C   UNL     1      -4.175  -4.075   6.124  0.00  0.00    +0.005 C 
ATOM     16  C   UNL     1      -1.334  -6.392   8.189  0.00  0.00    +0.011 C 
ATOM     17  C   UNL     1      -2.328  -2.609   4.831  0.00  0.00    +0.049 C 
ATOM     18  C   UNL     1      -4.386  -2.767   4.964  0.00  0.00    +0.038 C 
ATOM     19  C   UNL     1       0.033  -5.096   7.046  0.00  0.00    +0.014 C 
ATOM     20  C   UNL     1      -2.930  -1.974   4.265  0.00  0.00    +0.152 C 
ATOM     21  C   UNL     1      -3.966  -2.053   4.332  0.00  0.00    +0.151 C 
ATOM     22  C   UNL     1      -3.096  -0.576   3.026  0.00  0.00    +0.247 C 
ATOM     23  C   UNL     1      -4.176  -0.660   3.096  0.00  0.00    +0.314 C 
ATOM     24  C   UNL     1      -2.617   0.190   2.348  0.00  0.00    +0.181 C 
ATOM     25  C   UNL     1      -3.270   0.879   1.734  0.00  0.00    +0.068 C 
ATOM     26  C   UNL     1      -4.395   0.792   1.808  0.00  0.00    +0.121 C 
ATOM     27  C   UNL     1      -4.982   1.396   1.269  0.00  0.00    +0.038 C 
ENDROOT
BRANCH  12  30
ATOM     28  O   UNL     1       1.930  -5.929   8.454  0.00  0.00    -0.457 OA
ATOM     29  O   UNL     1       2.686  -7.229   7.498  0.00  0.00    -0.246 OA
ATOM     30  C   UNL     1       0.419  -6.043   7.887  0.00  0.00    -0.022 C 
ATOM     31  C   UNL     1       1.009  -5.545   8.522  0.00  0.00    +0.264 C 
ATOM     32  C   UNL     1       0.975  -6.734   7.425  0.00  0.00    +0.094 C 
ATOM     33  C   UNL     1       1.910  -6.664   7.776  0.00  0.00    +0.332 C 
ENDBRANCH  12  30
BRANCH   4  34
ATOM     34  O   UNL     1      -2.996  -5.313   7.227  0.00  0.00    -0.388 OA
ATOM     35  H   UNL     1      -3.293  -5.766   6.925  0.00  0.00    +0.210 HD
ENDBRANCH   4  34
BRANCH   8  37
ATOM     36  O   UNL     1      -1.545  -2.090   5.467  0.00  0.00    -0.300 OA
ATOM     37  C   UNL     1      -1.870  -2.988   5.169  0.00  0.00    +0.230 C 
ENDBRANCH   8  37
BRANCH  22  38
ATOM     38  O   UNL     1      -2.101  -0.499   2.961  0.00  0.00    -0.359 OA
ATOM     39  H   UNL     1      -1.846  -0.140   2.525  0.00  0.00    +0.213 HD
ENDBRANCH  22  38
BRANCH  24  40
ATOM     40  O   UNL     1      -1.621   0.259   2.291  0.00  0.00    -0.386 OA
ATOM     41  H   UNL     1      -1.348   0.371   1.745  0.00  0.00    +0.210 HD
ENDBRANCH  24  40
TORSDOF 5
ENDMDL
MODEL 9
REMARK VINA RESULT:      -7.2      9.263     12.210
REMARK  Name = 16142
REMARK  7 active torsions:
REMARK  status: ('A' for Active; 'I' for Inactive)
REMARK    1  A    between atoms: O_1  and  C_10
REMARK    2  A    between atoms: O_7  and  C_30
REMARK    3  A    between atoms: O_8  and  C_34
REMARK    4  A    between atoms: C_13  and  C_25
REMARK    5  A    between atoms: C_14  and  C_28
REMARK    6  A    between atoms: C_18  and  C_29
REMARK    7  A    between atoms: C_37  and  C_38
REMARK                            x       y       z     vdW  Elec       q    Type
REMARK                         _______ _______ _______ _____ _____    ______ ____
ROOT
ATOM      1  O   UNL     1      -3.358  -3.005   4.715  0.00  0.00    -0.337 OA
ATOM      2  O   UNL     1      -2.940  -0.899   4.532  0.00  0.00    -0.341 OA
ATOM      3  O   UNL     1      -3.395  -0.603   6.368  0.00  0.00    -0.343 OA
ATOM      4  C   UNL     1      -2.043  -3.642  -0.457  0.00  0.00    +0.075 C 
ATOM      5  C   UNL     1      -2.166  -3.027   0.375  0.00  0.00    +0.025 C 
ATOM      6  C   UNL     1      -2.472  -3.402   1.250  0.00  0.00    +0.008 C 
ATOM      7  C   UNL     1      -2.243  -4.661  -0.376  0.00  0.00    +0.004 C 
ATOM      8  C   UNL     1      -2.585  -2.800   2.040  0.00  0.00    +0.034 C 
ATOM      9  C   UNL     1      -2.391  -1.822   1.956  0.00  0.00    +0.005 C 
ATOM     10  C   UNL     1      -2.678  -4.418   1.354  0.00  0.00    +0.005 C 
ATOM     11  C   UNL     1      -2.563  -5.052   0.535  0.00  0.00    +0.010 C 
ATOM     12  C   UNL     1      -2.064  -5.094  -1.299  0.00  0.00    +0.027 C 
ATOM     13  C   UNL     1      -1.972  -2.050   0.291  0.00  0.00    +0.007 C 
ATOM     14  C   UNL     1      -1.742  -3.453  -1.430  0.00  0.00    +0.036 C 
ATOM     15  C   UNL     1      -2.085  -1.447   1.081  0.00  0.00    +0.005 C 
ATOM     16  C   UNL     1      -1.755  -4.349  -1.949  0.00  0.00    +0.011 C 
ATOM     17  C   UNL     1      -2.905  -3.205   2.945  0.00  0.00    +0.049 C 
ATOM     18  C   UNL     1      -2.504  -1.182   2.770  0.00  0.00    +0.038 C 
ATOM     19  C   UNL     1      -2.435  -5.640  -0.298  0.00  0.00    +0.014 C 
ATOM     20  C   UNL     1      -3.025  -2.584   3.772  0.00  0.00    +0.152 C 
ATOM     21  C   UNL     1      -2.823  -1.566   3.685  0.00  0.00    +0.151 C 
ATOM     22  C   UNL     1      -3.483  -2.358   5.577  0.00  0.00    +0.247 C 
ATOM     23  C   UNL     1      -3.273  -1.297   5.485  0.00  0.00    +0.314 C 
ATOM     24  C   UNL     1      -3.830  -2.798   6.559  0.00  0.00    +0.181 C 
ATOM     25  C   UNL     1      -3.960  -2.124   7.457  0.00  0.00    +0.068 C 
ATOM     26  C   UNL     1      -3.741  -1.019   7.360  0.00  0.00    +0.121 C 
ATOM     27  C   UNL     1      -3.853  -0.413   8.149  0.00  0.00    +0.038 C 
ENDROOT
BRANCH  12  30
ATOM     28  O   UNL     1      -1.874  -7.642  -1.705  0.00  0.00    -0.457 OA
ATOM     29  O   UNL     1      -3.428  -8.138  -2.422  0.00  0.00    -0.246 OA
ATOM     30  C   UNL     1      -2.171  -6.062  -1.525  0.00  0.00    -0.022 C 
ATOM     31  C   UNL     1      -1.486  -6.777  -1.386  0.00  0.00    +0.264 C 
ATOM     32  C   UNL     1      -2.982  -6.484  -1.930  0.00  0.00    +0.094 C 
ATOM     33  C   UNL     1      -2.798  -7.461  -2.041  0.00  0.00    +0.332 C 
ENDBRANCH  12  30
BRANCH   4  34
ATOM     34  O   UNL     1      -1.852  -2.664  -0.534  0.00  0.00    -0.388 OA
ATOM     35  H   UNL     1      -1.740  -2.412  -1.090  0.00  0.00    +0.210 HD
ENDBRANCH   4  34
BRANCH   8  37
ATOM     36  O   UNL     1      -2.251  -4.114   3.118  0.00  0.00    -0.300 OA
ATOM     37  C   UNL     1      -2.850  -3.673   2.449  0.00  0.00    +0.230 C 
ENDBRANCH   8  37
BRANCH  22  38
ATOM     38  O   UNL     1      -3.677  -3.336   5.662  0.00  0.00    -0.359 OA
ATOM     39  H   UNL     1      -4.073  -3.608   5.270  0.00  0.00    +0.213 HD
ENDBRANCH  22  38
BRANCH  24  40
ATOM     40  O   UNL     1      -4.021  -3.777   6.632  0.00  0.00    -0.386 OA
ATOM     41  H   UNL     1      -3.849  -4.161   6.177  0.00  0.00    +0.210 HD
ENDBRANCH  24  40
TORSDOF 5
ENDMDL
