MODEL 1
REMARK VINA RESULT:      -1.6      0.000      0.000
REMARK  Name = 962
REMARK  0 active torsions:
REMARK  status: ('A' for Active; 'I' for Inactive)
REMARK                            x       y       z     vdW  Elec       q    Type
REMARK                         _______ _______ _______ _____ _____    ______ ____
ROOT
ATOM      1  O   HOH     1      56.900   7.790  63.490  0.00  0.00    -0.410 OA
ATOM      2  H   HOH     0      56.387   7.709  63.829  0.00  0.00    +0.205 HD
ATOM      3  H   HOH     0      57.132   7.319  63.160  0.00  0.00    +0.205 HD
ENDROOT
TORSDOF 0
ENDMDL
MODEL 2
REMARK VINA RESULT:      -1.1      3.771      3.771
REMARK  Name = 962
REMARK  0 active torsions:
REMARK  status: ('A' for Active; 'I' for Inactive)
REMARK                            x       y       z     vdW  Elec       q    Type
REMARK                         _______ _______ _______ _____ _____    ______ ____
ROOT
ATOM      1  O   HOH     1      56.197   4.166  62.720  0.00  0.00    -0.410 OA
ATOM      2  H   HOH     0      56.570   4.509  62.361  0.00  0.00    +0.205 HD
ATOM      3  H   HOH     0      55.753   4.439  63.055  0.00  0.00    +0.205 HD
ENDROOT
TORSDOF 0
ENDMDL
MODEL 3
REMARK VINA RESULT:      -1.1      5.143      5.143
REMARK  Name = 962
REMARK  0 active torsions:
REMARK  status: ('A' for Active; 'I' for Inactive)
REMARK                            x       y       z     vdW  Elec       q    Type
REMARK                         _______ _______ _______ _____ _____    ______ ____
ROOT
ATOM      1  O   HOH     1      57.053   2.718  64.324  0.00  0.00    -0.410 OA
ATOM      2  H   HOH     0      57.548   2.481  64.613  0.00  0.00    +0.205 HD
ATOM      3  H   HOH     0      57.112   3.225  63.972  0.00  0.00    +0.205 HD
ENDROOT
TORSDOF 0
ENDMDL
MODEL 4
REMARK VINA RESULT:      -1.0      7.461      7.461
REMARK  Name = 962
REMARK  0 active torsions:
REMARK  status: ('A' for Active; 'I' for Inactive)
REMARK                            x       y       z     vdW  Elec       q    Type
REMARK                         _______ _______ _______ _____ _____    ______ ____
ROOT
ATOM      1  O   HOH     1      53.420   1.939  66.542  0.00  0.00    -0.410 OA
ATOM      2  H   HOH     0      53.792   2.282  66.184  0.00  0.00    +0.205 HD
ATOM      3  H   HOH     0      52.975   2.212  66.877  0.00  0.00    +0.205 HD
ENDROOT
TORSDOF 0
ENDMDL
MODEL 5
REMARK VINA RESULT:      -1.0      9.848      9.848
REMARK  Name = 962
REMARK  0 active torsions:
REMARK  status: ('A' for Active; 'I' for Inactive)
REMARK                            x       y       z     vdW  Elec       q    Type
REMARK                         _______ _______ _______ _____ _____    ______ ____
ROOT
ATOM      1  O   HOH     1      56.000  -1.974  62.583  0.00  0.00    -0.410 OA
ATOM      2  H   HOH     0      56.373  -1.632  62.224  0.00  0.00    +0.205 HD
ATOM      3  H   HOH     0      55.556  -1.701  62.918  0.00  0.00    +0.205 HD
ENDROOT
TORSDOF 0
ENDMDL
MODEL 6
REMARK VINA RESULT:      -1.0      9.374      9.374
REMARK  Name = 962
REMARK  0 active torsions:
REMARK  status: ('A' for Active; 'I' for Inactive)
REMARK                            x       y       z     vdW  Elec       q    Type
REMARK                         _______ _______ _______ _____ _____    ______ ____
ROOT
ATOM      1  O   HOH     1      52.369  -0.120  65.672  0.00  0.00    -0.410 OA
ATOM      2  H   HOH     0      52.406   0.052  66.267  0.00  0.00    +0.205 HD
ATOM      3  H   HOH     0      52.580   0.256  65.227  0.00  0.00    +0.205 HD
ENDROOT
TORSDOF 0
ENDMDL
MODEL 7
REMARK VINA RESULT:      -0.9     10.736     10.736
REMARK  Name = 962
REMARK  0 active torsions:
REMARK  status: ('A' for Active; 'I' for Inactive)
REMARK                            x       y       z     vdW  Elec       q    Type
REMARK                         _______ _______ _______ _____ _____    ______ ____
ROOT
ATOM      1  O   HOH     1      50.644  -0.615  65.832  0.00  0.00    -0.410 OA
ATOM      2  H   HOH     0      50.223  -0.893  65.472  0.00  0.00    +0.205 HD
ATOM      3  H   HOH     0      50.627   0.000  65.911  0.00  0.00    +0.205 HD
ENDROOT
TORSDOF 0
ENDMDL
MODEL 8
REMARK VINA RESULT:      -0.9      6.703      6.703
REMARK  Name = 962
REMARK  0 active torsions:
REMARK  status: ('A' for Active; 'I' for Inactive)
REMARK                            x       y       z     vdW  Elec       q    Type
REMARK                         _______ _______ _______ _____ _____    ______ ____
ROOT
ATOM      1  O   HOH     1      58.112   2.803  59.179  0.00  0.00    -0.410 OA
ATOM      2  H   HOH     0      58.485   3.146  58.820  0.00  0.00    +0.205 HD
ATOM      3  H   HOH     0      57.667   3.076  59.514  0.00  0.00    +0.205 HD
ENDROOT
TORSDOF 0
ENDMDL
MODEL 9
REMARK VINA RESULT:      -0.9      7.211      7.211
REMARK  Name = 962
REMARK  0 active torsions:
REMARK  status: ('A' for Active; 'I' for Inactive)
REMARK                            x       y       z     vdW  Elec       q    Type
REMARK                         _______ _______ _______ _____ _____    ______ ____
ROOT
ATOM      1  O   HOH     1      58.119   0.685  63.341  0.00  0.00    -0.410 OA
ATOM      2  H   HOH     0      58.614   0.448  63.630  0.00  0.00    +0.205 HD
ATOM      3  H   HOH     0      58.178   1.192  62.989  0.00  0.00    +0.205 HD
ENDROOT
TORSDOF 0
ENDMDL
