MODEL 1
REMARK VINA RESULT:      -8.4      0.000      0.000
REMARK  Name = 16142
REMARK  7 active torsions:
REMARK  status: ('A' for Active; 'I' for Inactive)
REMARK    1  A    between atoms: O_1  and  C_10
REMARK    2  A    between atoms: O_7  and  C_30
REMARK    3  A    between atoms: O_8  and  C_34
REMARK    4  A    between atoms: C_13  and  C_25
REMARK    5  A    between atoms: C_14  and  C_28
REMARK    6  A    between atoms: C_18  and  C_29
REMARK    7  A    between atoms: C_37  and  C_38
REMARK                            x       y       z     vdW  Elec       q    Type
REMARK                         _______ _______ _______ _____ _____    ______ ____
ROOT
ATOM      1  O   UNL     1       2.170  -0.587  -5.004  0.00  0.00    -0.337 OA
ATOM      2  O   UNL     1       0.038  -0.365  -4.781  0.00  0.00    -0.341 OA
ATOM      3  O   UNL     1       0.036  -1.500  -3.240  0.00  0.00    -0.343 OA
ATOM      4  C   UNL     1       1.982   2.620  -9.312  0.00  0.00    +0.075 C 
ATOM      5  C   UNL     1       1.500   2.130  -8.529  0.00  0.00    +0.025 C 
ATOM      6  C   UNL     1       2.014   1.563  -7.885  0.00  0.00    +0.008 C 
ATOM      7  C   UNL     1       3.012   2.518  -9.426  0.00  0.00    +0.004 C 
ATOM      8  C   UNL     1       1.539   1.099  -7.138  0.00  0.00    +0.034 C 
ATOM      9  C   UNL     1       0.549   1.202  -7.034  0.00  0.00    +0.005 C 
ATOM     10  C   UNL     1       3.045   1.446  -7.980  0.00  0.00    +0.005 C 
ATOM     11  C   UNL     1       3.547   1.927  -8.755  0.00  0.00    +0.010 C 
ATOM     12  C   UNL     1       3.297   3.074 -10.251  0.00  0.00    +0.027 C 
ATOM     13  C   UNL     1       0.511   2.233  -8.425  0.00  0.00    +0.007 C 
ATOM     14  C   UNL     1       1.638   3.239 -10.068  0.00  0.00    +0.036 C 
ATOM     15  C   UNL     1       0.036   1.769  -7.678  0.00  0.00    +0.005 C 
ATOM     16  C   UNL     1       2.449   3.519 -10.648  0.00  0.00    +0.011 C 
ATOM     17  C   UNL     1       2.087   0.512  -6.475  0.00  0.00    +0.049 C 
ATOM     18  C   UNL     1       0.040   0.724  -6.261  0.00  0.00    +0.038 C 
ATOM     19  C   UNL     1       4.002   2.419  -9.535  0.00  0.00    +0.014 C 
ATOM     20  C   UNL     1       1.599   0.025  -5.695  0.00  0.00    +0.152 C 
ATOM     21  C   UNL     1       0.569   0.132  -5.586  0.00  0.00    +0.151 C 
ATOM     22  C   UNL     1       1.662  -1.094  -4.191  0.00  0.00    +0.247 C 
ATOM     23  C   UNL     1       0.588  -0.982  -4.079  0.00  0.00    +0.314 C 
ATOM     24  C   UNL     1       2.257  -1.731  -3.471  0.00  0.00    +0.181 C 
ATOM     25  C   UNL     1       1.727  -2.259  -2.624  0.00  0.00    +0.068 C 
ATOM     26  C   UNL     1       0.609  -2.143  -2.508  0.00  0.00    +0.121 C 
ATOM     27  C   UNL     1       0.130  -2.606  -1.762  0.00  0.00    +0.038 C 
ENDROOT
BRANCH  12  30
ATOM     28  O   UNL     1       5.598   2.893 -11.419  0.00  0.00    -0.457 OA
ATOM     29  O   UNL     1       6.546   4.289 -10.846  0.00  0.00    -0.246 OA
ATOM     30  C   UNL     1       4.227   3.166 -10.605  0.00  0.00    -0.022 C 
ATOM     31  C   UNL     1       4.675   2.548 -11.251  0.00  0.00    +0.264 C 
ATOM     32  C   UNL     1       4.873   3.894 -10.375  0.00  0.00    +0.094 C 
ATOM     33  C   UNL     1       5.721   3.725 -10.878  0.00  0.00    +0.332 C 
ENDBRANCH  12  30
BRANCH   4  34
ATOM     34  O   UNL     1       0.993   2.718  -9.202  0.00  0.00    -0.388 OA
ATOM     35  H   UNL     1       0.621   2.689  -9.698  0.00  0.00    +0.210 HD
ENDBRANCH   4  34
BRANCH   8  37
ATOM     36  O   UNL     1       2.962   1.130  -6.151  0.00  0.00    -0.300 OA
ATOM     37  C   UNL     1       2.475   0.799  -6.960  0.00  0.00    +0.230 C 
ENDBRANCH   8  37
BRANCH  22  38
ATOM     38  O   UNL     1       2.651  -1.197  -4.294  0.00  0.00    -0.359 OA
ATOM     39  H   UNL     1       2.880  -1.591  -4.714  0.00  0.00    +0.213 HD
ENDBRANCH  22  38
BRANCH  24  40
ATOM     40  O   UNL     1       3.246  -1.827  -3.584  0.00  0.00    -0.386 OA
ATOM     41  H   UNL     1       3.518  -1.640  -4.109  0.00  0.00    +0.210 HD
ENDBRANCH  24  40
TORSDOF 5
ENDMDL
MODEL 2
REMARK VINA RESULT:      -8.2     10.254     13.491
REMARK  Name = 16142
REMARK  7 active torsions:
REMARK  status: ('A' for Active; 'I' for Inactive)
REMARK    1  A    between atoms: O_1  and  C_10
REMARK    2  A    between atoms: O_7  and  C_30
REMARK    3  A    between atoms: O_8  and  C_34
REMARK    4  A    between atoms: C_13  and  C_25
REMARK    5  A    between atoms: C_14  and  C_28
REMARK    6  A    between atoms: C_18  and  C_29
REMARK    7  A    between atoms: C_37  and  C_38
REMARK                            x       y       z     vdW  Elec       q    Type
REMARK                         _______ _______ _______ _____ _____    ______ ____
ROOT
ATOM      1  O   UNL     1      -3.813  -5.160   5.925  0.00  0.00    -0.337 OA
ATOM      2  O   UNL     1      -2.001  -6.295   5.654  0.00  0.00    -0.341 OA
ATOM      3  O   UNL     1      -2.469  -7.470   7.091  0.00  0.00    -0.343 OA
ATOM      4  C   UNL     1      -2.334  -1.964   1.866  0.00  0.00    +0.075 C 
ATOM      5  C   UNL     1      -2.149  -2.778   2.489  0.00  0.00    +0.025 C 
ATOM      6  C   UNL     1      -2.798  -3.036   3.204  0.00  0.00    +0.008 C 
ATOM      7  C   UNL     1      -3.208  -1.411   1.991  0.00  0.00    +0.004 C 
ATOM      8  C   UNL     1      -2.606  -3.821   3.794  0.00  0.00    +0.034 C 
ATOM      9  C   UNL     1      -1.766  -4.347   3.669  0.00  0.00    +0.005 C 
ATOM     10  C   UNL     1      -3.678  -2.497   3.347  0.00  0.00    +0.005 C 
ATOM     11  C   UNL     1      -3.884  -1.679   2.737  0.00  0.00    +0.010 C 
ATOM     12  C   UNL     1      -3.207  -0.653   1.286  0.00  0.00    +0.027 C 
ATOM     13  C   UNL     1      -1.308  -3.305   2.363  0.00  0.00    +0.007 C 
ATOM     14  C   UNL     1      -1.801  -1.544   1.084  0.00  0.00    +0.036 C 
ATOM     15  C   UNL     1      -1.116  -4.089   2.953  0.00  0.00    +0.005 C 
ATOM     16  C   UNL     1      -2.339  -0.735   0.726  0.00  0.00    +0.011 C 
ATOM     17  C   UNL     1      -3.292  -4.077   4.535  0.00  0.00    +0.049 C 
ATOM     18  C   UNL     1      -1.552  -5.167   4.275  0.00  0.00    +0.038 C 
ATOM     19  C   UNL     1      -4.047  -0.879   2.111  0.00  0.00    +0.014 C 
ATOM     20  C   UNL     1      -3.099  -4.893   5.153  0.00  0.00    +0.152 C 
ATOM     21  C   UNL     1      -2.224  -5.441   5.023  0.00  0.00    +0.151 C 
ATOM     22  C   UNL     1      -3.613  -6.010   6.570  0.00  0.00    +0.247 C 
ATOM     23  C   UNL     1      -2.701  -6.581   6.433  0.00  0.00    +0.314 C 
ATOM     24  C   UNL     1      -4.357  -6.288   7.374  0.00  0.00    +0.181 C 
ATOM     25  C   UNL     1      -4.149  -7.173   8.045  0.00  0.00    +0.068 C 
ATOM     26  C   UNL     1      -3.198  -7.768   7.902  0.00  0.00    +0.121 C 
ATOM     27  C   UNL     1      -3.003  -8.553   8.491  0.00  0.00    +0.038 C 
ENDROOT
BRANCH  12  30
ATOM     28  O   UNL     1      -5.214   0.832   0.608  0.00  0.00    -0.457 OA
ATOM     29  O   UNL     1      -5.161   2.247   1.690  0.00  0.00    -0.246 OA
ATOM     30  C   UNL     1      -3.920   0.037   1.165  0.00  0.00    -0.022 C 
ATOM     31  C   UNL     1      -4.660   0.008   0.493  0.00  0.00    +0.264 C 
ATOM     32  C   UNL     1      -4.017   0.880   1.695  0.00  0.00    +0.094 C 
ATOM     33  C   UNL     1      -4.818   1.371   1.351  0.00  0.00    +0.332 C 
ENDBRANCH  12  30
BRANCH   4  34
ATOM     34  O   UNL     1      -1.495  -2.495   1.747  0.00  0.00    -0.388 OA
ATOM     35  H   UNL     1      -1.189  -2.474   1.208  0.00  0.00    +0.210 HD
ENDBRANCH   4  34
BRANCH   8  37
ATOM     36  O   UNL     1      -4.310  -4.069   3.986  0.00  0.00    -0.300 OA
ATOM     37  C   UNL     1      -3.486  -3.532   4.170  0.00  0.00    +0.230 C 
ENDBRANCH   8  37
BRANCH  22  38
ATOM     38  O   UNL     1      -4.454  -5.483   6.695  0.00  0.00    -0.359 OA
ATOM     39  H   UNL     1      -4.535  -4.951   6.388  0.00  0.00    +0.213 HD
ENDBRANCH  22  38
BRANCH  24  40
ATOM     40  O   UNL     1      -5.195  -5.754   7.491  0.00  0.00    -0.386 OA
ATOM     41  H   UNL     1      -5.549  -5.622   6.999  0.00  0.00    +0.210 HD
ENDBRANCH  24  40
TORSDOF 5
ENDMDL
MODEL 3
REMARK VINA RESULT:      -8.1     10.014     13.923
REMARK  Name = 16142
REMARK  7 active torsions:
REMARK  status: ('A' for Active; 'I' for Inactive)
REMARK    1  A    between atoms: O_1  and  C_10
REMARK    2  A    between atoms: O_7  and  C_30
REMARK    3  A    between atoms: O_8  and  C_34
REMARK    4  A    between atoms: C_13  and  C_25
REMARK    5  A    between atoms: C_14  and  C_28
REMARK    6  A    between atoms: C_18  and  C_29
REMARK    7  A    between atoms: C_37  and  C_38
REMARK                            x       y       z     vdW  Elec       q    Type
REMARK                         _______ _______ _______ _____ _____    ______ ____
ROOT
ATOM      1  O   UNL     1      -3.678  -6.062   5.037  0.00  0.00    -0.337 OA
ATOM      2  O   UNL     1      -3.732  -5.606   7.142  0.00  0.00    -0.341 OA
ATOM      3  O   UNL     1      -3.778  -7.467   7.590  0.00  0.00    -0.343 OA
ATOM      4  C   UNL     1      -3.554  -0.796   3.972  0.00  0.00    +0.075 C 
ATOM      5  C   UNL     1      -3.588  -1.578   4.659  0.00  0.00    +0.025 C 
ATOM      6  C   UNL     1      -3.596  -2.530   4.353  0.00  0.00    +0.008 C 
ATOM      7  C   UNL     1      -3.528  -1.009   2.953  0.00  0.00    +0.004 C 
ATOM      8  C   UNL     1      -3.629  -3.271   5.024  0.00  0.00    +0.034 C 
ATOM      9  C   UNL     1      -3.654  -3.059   6.001  0.00  0.00    +0.005 C 
ATOM     10  C   UNL     1      -3.570  -2.767   3.339  0.00  0.00    +0.005 C 
ATOM     11  C   UNL     1      -3.536  -2.001   2.634  0.00  0.00    +0.010 C 
ATOM     12  C   UNL     1      -3.497  -0.109   2.441  0.00  0.00    +0.027 C 
ATOM     13  C   UNL     1      -3.613  -1.367   5.636  0.00  0.00    +0.007 C 
ATOM     14  C   UNL     1      -3.539   0.234   4.082  0.00  0.00    +0.036 C 
ATOM     15  C   UNL     1      -3.646  -2.107   6.307  0.00  0.00    +0.005 C 
ATOM     16  C   UNL     1      -3.504   0.657   3.138  0.00  0.00    +0.011 C 
ATOM     17  C   UNL     1      -3.636  -4.257   4.691  0.00  0.00    +0.049 C 
ATOM     18  C   UNL     1      -3.688  -3.820   6.712  0.00  0.00    +0.038 C 
ATOM     19  C   UNL     1      -3.502  -1.213   1.973  0.00  0.00    +0.014 C 
ATOM     20  C   UNL     1      -3.670  -5.034   5.384  0.00  0.00    +0.152 C 
ATOM     21  C   UNL     1      -3.696  -4.815   6.401  0.00  0.00    +0.151 C 
ATOM     22  C   UNL     1      -3.714  -6.871   5.758  0.00  0.00    +0.247 C 
ATOM     23  C   UNL     1      -3.741  -6.642   6.819  0.00  0.00    +0.314 C 
ATOM     24  C   UNL     1      -3.722  -7.942   5.396  0.00  0.00    +0.181 C 
ATOM     25  C   UNL     1      -3.759  -8.785   6.148  0.00  0.00    +0.068 C 
ATOM     26  C   UNL     1      -3.788  -8.545   7.253  0.00  0.00    +0.121 C 
ATOM     27  C   UNL     1      -3.820  -9.284   7.927  0.00  0.00    +0.038 C 
ENDROOT
BRANCH  12  30
ATOM     28  O   UNL     1      -2.938   0.034  -0.081  0.00  0.00    -0.457 OA
ATOM     29  O   UNL     1      -4.439   0.564  -0.883  0.00  0.00    -0.246 OA
ATOM     30  C   UNL     1      -3.465   0.002   1.448  0.00  0.00    -0.022 C 
ATOM     31  C   UNL     1      -2.670  -0.157   0.863  0.00  0.00    +0.264 C 
ATOM     32  C   UNL     1      -4.225   0.291   0.866  0.00  0.00    +0.094 C 
ATOM     33  C   UNL     1      -3.899   0.311  -0.080  0.00  0.00    +0.332 C 
ENDBRANCH  12  30
BRANCH   4  34
ATOM     34  O   UNL     1      -3.579  -0.592   4.951  0.00  0.00    -0.388 OA
ATOM     35  H   UNL     1      -3.212  -0.150   5.185  0.00  0.00    +0.210 HD
ENDBRANCH   4  34
BRANCH   8  37
ATOM     36  O   UNL     1      -2.796  -4.324   3.930  0.00  0.00    -0.300 OA
ATOM     37  C   UNL     1      -3.613  -3.804   4.179  0.00  0.00    +0.230 C 
ENDBRANCH   8  37
BRANCH  22  38
ATOM     38  O   UNL     1      -3.689  -7.083   4.781  0.00  0.00    -0.359 OA
ATOM     39  H   UNL     1      -3.153  -7.054   4.471  0.00  0.00    +0.213 HD
ENDBRANCH  22  38
BRANCH  24  40
ATOM     40  O   UNL     1      -3.697  -8.142   4.417  0.00  0.00    -0.386 OA
ATOM     41  H   UNL     1      -4.226  -8.198   4.098  0.00  0.00    +0.210 HD
ENDBRANCH  24  40
TORSDOF 5
ENDMDL
MODEL 4
REMARK VINA RESULT:      -7.9      5.437     10.408
REMARK  Name = 16142
REMARK  7 active torsions:
REMARK  status: ('A' for Active; 'I' for Inactive)
REMARK    1  A    between atoms: O_1  and  C_10
REMARK    2  A    between atoms: O_7  and  C_30
REMARK    3  A    between atoms: O_8  and  C_34
REMARK    4  A    between atoms: C_13  and  C_25
REMARK    5  A    between atoms: C_14  and  C_28
REMARK    6  A    between atoms: C_18  and  C_29
REMARK    7  A    between atoms: C_37  and  C_38
REMARK                            x       y       z     vdW  Elec       q    Type
REMARK                         _______ _______ _______ _____ _____    ______ ____
ROOT
ATOM      1  O   UNL     1       1.299  -1.966  -2.589  0.00  0.00    -0.337 OA
ATOM      2  O   UNL     1       1.813  -4.052  -2.427  0.00  0.00    -0.341 OA
ATOM      3  O   UNL     1       3.070  -3.900  -3.863  0.00  0.00    -0.343 OA
ATOM      4  C   UNL     1      -2.181  -2.582   1.459  0.00  0.00    +0.075 C 
ATOM      5  C   UNL     1      -1.468  -2.980   0.812  0.00  0.00    +0.025 C 
ATOM      6  C   UNL     1      -1.024  -2.407   0.123  0.00  0.00    +0.008 C 
ATOM      7  C   UNL     1      -2.435  -1.574   1.387  0.00  0.00    +0.004 C 
ATOM      8  C   UNL     1      -0.341  -2.803  -0.491  0.00  0.00    +0.034 C 
ATOM      9  C   UNL     1      -0.102  -3.771  -0.416  0.00  0.00    +0.005 C 
ATOM     10  C   UNL     1      -1.262  -1.397   0.032  0.00  0.00    +0.005 C 
ATOM     11  C   UNL     1      -1.972  -0.978   0.668  0.00  0.00    +0.010 C 
ATOM     12  C   UNL     1      -3.151  -1.375   2.106  0.00  0.00    +0.027 C 
ATOM     13  C   UNL     1      -1.229  -3.948   0.887  0.00  0.00    +0.007 C 
ATOM     14  C   UNL     1      -2.744  -2.997   2.223  0.00  0.00    +0.036 C 
ATOM     15  C   UNL     1      -0.546  -4.343   0.273  0.00  0.00    +0.005 C 
ATOM     16  C   UNL     1      -3.342  -2.252   2.622  0.00  0.00    +0.011 C 
ATOM     17  C   UNL     1       0.113  -2.194  -1.203  0.00  0.00    +0.049 C 
ATOM     18  C   UNL     1       0.607  -4.197  -1.048  0.00  0.00    +0.038 C 
ATOM     19  C   UNL     1      -2.678  -0.606   1.317  0.00  0.00    +0.014 C 
ATOM     20  C   UNL     1       0.826  -2.599  -1.847  0.00  0.00    +0.152 C 
ATOM     21  C   UNL     1       1.075  -3.607  -1.769  0.00  0.00    +0.151 C 
ATOM     22  C   UNL     1       2.041  -2.387  -3.259  0.00  0.00    +0.247 C 
ATOM     23  C   UNL     1       2.300  -3.438  -3.177  0.00  0.00    +0.314 C 
ATOM     24  C   UNL     1       2.534  -1.727  -4.033  0.00  0.00    +0.181 C 
ATOM     25  C   UNL     1       3.307  -2.166  -4.731  0.00  0.00    +0.068 C 
ATOM     26  C   UNL     1       3.576  -3.261  -4.645  0.00  0.00    +0.121 C 
ATOM     27  C   UNL     1       4.259  -3.660  -5.258  0.00  0.00    +0.038 C 
ENDROOT
BRANCH  12  30
ATOM     28  O   UNL     1      -3.973   0.931   2.943  0.00  0.00    -0.457 OA
ATOM     29  O   UNL     1      -5.211   1.460   1.775  0.00  0.00    -0.246 OA
ATOM     30  C   UNL     1      -3.585  -0.490   2.274  0.00  0.00    -0.022 C 
ATOM     31  C   UNL     1      -3.388   0.126   3.037  0.00  0.00    +0.264 C 
ATOM     32  C   UNL     1      -4.292  -0.065   1.708  0.00  0.00    +0.094 C 
ATOM     33  C   UNL     1      -4.532   0.814   2.122  0.00  0.00    +0.332 C 
ENDBRANCH  12  30
BRANCH   4  34
ATOM     34  O   UNL     1      -1.937  -3.549   1.528  0.00  0.00    -0.388 OA
ATOM     35  H   UNL     1      -1.970  -3.914   1.028  0.00  0.00    +0.210 HD
ENDBRANCH   4  34
BRANCH   8  37
ATOM     36  O   UNL     1      -0.703  -1.645  -1.727  0.00  0.00    -0.300 OA
ATOM     37  C   UNL     1      -0.342  -1.859  -0.819  0.00  0.00    +0.230 C 
ENDBRANCH   8  37
BRANCH  22  38
ATOM     38  O   UNL     1       1.803  -1.419  -3.334  0.00  0.00    -0.359 OA
ATOM     39  H   UNL     1       1.761  -1.069  -2.824  0.00  0.00    +0.213 HD
ENDBRANCH  22  38
BRANCH  24  40
ATOM     40  O   UNL     1       2.288  -0.760  -4.099  0.00  0.00    -0.386 OA
ATOM     41  H   UNL     1       1.692  -0.593  -4.133  0.00  0.00    +0.210 HD
ENDBRANCH  24  40
TORSDOF 5
ENDMDL
MODEL 5
REMARK VINA RESULT:      -7.7      3.477      7.075
REMARK  Name = 16142
REMARK  7 active torsions:
REMARK  status: ('A' for Active; 'I' for Inactive)
REMARK    1  A    between atoms: O_1  and  C_10
REMARK    2  A    between atoms: O_7  and  C_30
REMARK    3  A    between atoms: O_8  and  C_34
REMARK    4  A    between atoms: C_13  and  C_25
REMARK    5  A    between atoms: C_14  and  C_28
REMARK    6  A    between atoms: C_18  and  C_29
REMARK    7  A    between atoms: C_37  and  C_38
REMARK                            x       y       z     vdW  Elec       q    Type
REMARK                         _______ _______ _______ _____ _____    ______ ____
ROOT
ATOM      1  O   UNL     1       7.299   3.769  -7.300  0.00  0.00    -0.337 OA
ATOM      2  O   UNL     1       8.341   4.520  -9.030  0.00  0.00    -0.341 OA
ATOM      3  O   UNL     1       9.929   4.815  -8.001  0.00  0.00    -0.343 OA
ATOM      4  C   UNL     1       2.937   3.008 -10.346  0.00  0.00    +0.075 C 
ATOM      5  C   UNL     1       3.927   3.318 -10.246  0.00  0.00    +0.025 C 
ATOM      6  C   UNL     1       4.394   3.270  -9.363  0.00  0.00    +0.008 C 
ATOM      7  C   UNL     1       2.427   2.644  -9.514  0.00  0.00    +0.004 C 
ATOM      8  C   UNL     1       5.344   3.571  -9.283  0.00  0.00    +0.034 C 
ATOM      9  C   UNL     1       5.828   3.919 -10.085  0.00  0.00    +0.005 C 
ATOM     10  C   UNL     1       3.903   2.909  -8.518  0.00  0.00    +0.005 C 
ATOM     11  C   UNL     1       2.913   2.594  -8.594  0.00  0.00    +0.010 C 
ATOM     12  C   UNL     1       1.470   2.392  -9.814  0.00  0.00    +0.027 C 
ATOM     13  C   UNL     1       4.411   3.666 -11.049  0.00  0.00    +0.007 C 
ATOM     14  C   UNL     1       2.291   2.978 -11.154  0.00  0.00    +0.036 C 
ATOM     15  C   UNL     1       5.361   3.967 -10.969  0.00  0.00    +0.005 C 
ATOM     16  C   UNL     1       1.385   2.598 -10.826  0.00  0.00    +0.011 C 
ATOM     17  C   UNL     1       5.817   3.515  -8.356  0.00  0.00    +0.049 C 
ATOM     18  C   UNL     1       6.818   4.236 -10.017  0.00  0.00    +0.038 C 
ATOM     19  C   UNL     1       1.937   2.294  -8.715  0.00  0.00    +0.014 C 
ATOM     20  C   UNL     1       6.806   3.826  -8.265  0.00  0.00    +0.152 C 
ATOM     21  C   UNL     1       7.311   4.189  -9.100  0.00  0.00    +0.151 C 
ATOM     22  C   UNL     1       8.330   4.093  -7.204  0.00  0.00    +0.247 C 
ATOM     23  C   UNL     1       8.855   4.471  -8.076  0.00  0.00    +0.314 C 
ATOM     24  C   UNL     1       8.843   4.032  -6.199  0.00  0.00    +0.181 C 
ATOM     25  C   UNL     1       9.917   4.370  -6.099  0.00  0.00    +0.068 C 
ATOM     26  C   UNL     1      10.464   4.764  -7.007  0.00  0.00    +0.121 C 
ATOM     27  C   UNL     1      11.414   5.066  -6.930  0.00  0.00    +0.038 C 
ENDROOT
BRANCH  12  30
ATOM     28  O   UNL     1      -0.470   1.895  -8.177  0.00  0.00    -0.457 OA
ATOM     29  O   UNL     1      -0.687   0.126  -8.201  0.00  0.00    -0.246 OA
ATOM     30  C   UNL     1       0.751   2.015  -9.231  0.00  0.00    -0.022 C 
ATOM     31  C   UNL     1       0.142   2.539  -8.635  0.00  0.00    +0.264 C 
ATOM     32  C   UNL     1       0.515   1.047  -9.141  0.00  0.00    +0.094 C 
ATOM     33  C   UNL     1      -0.241   0.973  -8.489  0.00  0.00    +0.332 C 
ENDBRANCH  12  30
BRANCH   4  34
ATOM     34  O   UNL     1       3.428   3.358 -11.144  0.00  0.00    -0.388 OA
ATOM     35  H   UNL     1       3.330   3.939 -11.338  0.00  0.00    +0.210 HD
ENDBRANCH   4  34
BRANCH   8  37
ATOM     36  O   UNL     1       5.143   3.980  -7.612  0.00  0.00    -0.300 OA
ATOM     37  C   UNL     1       5.170   3.294  -8.338  0.00  0.00    +0.230 C 
ENDBRANCH   8  37
BRANCH  22  38
ATOM     38  O   UNL     1       7.846   3.744  -6.401  0.00  0.00    -0.359 OA
ATOM     39  H   UNL     1       7.252   3.894  -6.308  0.00  0.00    +0.213 HD
ENDBRANCH  22  38
BRANCH  24  40
ATOM     40  O   UNL     1       8.350   3.682  -5.402  0.00  0.00    -0.386 OA
ATOM     41  H   UNL     1       8.232   4.056  -4.922  0.00  0.00    +0.210 HD
ENDBRANCH  24  40
TORSDOF 5
ENDMDL
MODEL 6
REMARK VINA RESULT:      -7.6      9.993     15.298
REMARK  Name = 16142
REMARK  7 active torsions:
REMARK  status: ('A' for Active; 'I' for Inactive)
REMARK    1  A    between atoms: O_1  and  C_10
REMARK    2  A    between atoms: O_7  and  C_30
REMARK    3  A    between atoms: O_8  and  C_34
REMARK    4  A    between atoms: C_13  and  C_25
REMARK    5  A    between atoms: C_14  and  C_28
REMARK    6  A    between atoms: C_18  and  C_29
REMARK    7  A    between atoms: C_37  and  C_38
REMARK                            x       y       z     vdW  Elec       q    Type
REMARK                         _______ _______ _______ _____ _____    ______ ____
ROOT
ATOM      1  O   UNL     1      -3.944  -1.493   2.877  0.00  0.00    -0.337 OA
ATOM      2  O   UNL     1      -2.542  -1.667   1.250  0.00  0.00    -0.341 OA
ATOM      3  O   UNL     1      -3.105   0.014   0.526  0.00  0.00    -0.343 OA
ATOM      4  C   UNL     1      -2.235  -6.228   4.760  0.00  0.00    +0.075 C 
ATOM      5  C   UNL     1      -2.187  -5.467   4.050  0.00  0.00    +0.025 C 
ATOM      6  C   UNL     1      -2.781  -4.665   4.115  0.00  0.00    +0.008 C 
ATOM      7  C   UNL     1      -2.910  -6.151   5.550  0.00  0.00    +0.004 C 
ATOM      8  C   UNL     1      -2.723  -3.943   3.426  0.00  0.00    +0.034 C 
ATOM      9  C   UNL     1      -2.073  -4.024   2.670  0.00  0.00    +0.005 C 
ATOM     10  C   UNL     1      -3.463  -4.567   4.896  0.00  0.00    +0.005 C 
ATOM     11  C   UNL     1      -3.529  -5.315   5.618  0.00  0.00    +0.010 C 
ATOM     12  C   UNL     1      -2.807  -6.994   6.140  0.00  0.00    +0.027 C 
ATOM     13  C   UNL     1      -1.537  -5.548   3.294  0.00  0.00    +0.007 C 
ATOM     14  C   UNL     1      -1.720  -7.119   4.869  0.00  0.00    +0.036 C 
ATOM     15  C   UNL     1      -1.480  -4.826   2.605  0.00  0.00    +0.005 C 
ATOM     16  C   UNL     1      -2.072  -7.592   5.720  0.00  0.00    +0.011 C 
ATOM     17  C   UNL     1      -3.347  -3.114   3.507  0.00  0.00    +0.049 C 
ATOM     18  C   UNL     1      -2.002  -3.280   1.945  0.00  0.00    +0.038 C 
ATOM     19  C   UNL     1      -3.559  -6.076   6.308  0.00  0.00    +0.014 C 
ATOM     20  C   UNL     1      -3.294  -2.357   2.793  0.00  0.00    +0.152 C 
ATOM     21  C   UNL     1      -2.617  -2.441   2.006  0.00  0.00    +0.151 C 
ATOM     22  C   UNL     1      -3.888  -0.705   2.134  0.00  0.00    +0.247 C 
ATOM     23  C   UNL     1      -3.182  -0.793   1.314  0.00  0.00    +0.314 C 
ATOM     24  C   UNL     1      -4.565   0.195   2.222  0.00  0.00    +0.181 C 
ATOM     25  C   UNL     1      -4.507   1.016   1.447  0.00  0.00    +0.068 C 
ATOM     26  C   UNL     1      -3.771   0.924   0.593  0.00  0.00    +0.121 C 
ATOM     27  C   UNL     1      -3.711   1.644  -0.098  0.00  0.00    +0.038 C 
ENDROOT
BRANCH  12  30
ATOM     28  O   UNL     1      -3.817  -7.217   8.511  0.00  0.00    -0.457 OA
ATOM     29  O   UNL     1      -5.205  -8.324   8.347  0.00  0.00    -0.246 OA
ATOM     30  C   UNL     1      -3.324  -7.199   6.970  0.00  0.00    -0.022 C 
ATOM     31  C   UNL     1      -3.136  -6.839   7.884  0.00  0.00    +0.264 C 
ATOM     32  C   UNL     1      -4.122  -7.798   7.032  0.00  0.00    +0.094 C 
ATOM     33  C   UNL     1      -4.427  -7.810   7.985  0.00  0.00    +0.332 C 
ENDBRANCH  12  30
BRANCH   4  34
ATOM     34  O   UNL     1      -1.587  -6.301   4.002  0.00  0.00    -0.388 OA
ATOM     35  H   UNL     1      -1.627  -5.911   3.522  0.00  0.00    +0.210 HD
ENDBRANCH   4  34
BRANCH   8  37
ATOM     36  O   UNL     1      -3.255  -2.760   4.574  0.00  0.00    -0.300 OA
ATOM     37  C   UNL     1      -3.440  -3.566   4.012  0.00  0.00    +0.230 C 
ENDBRANCH   8  37
BRANCH  22  38
ATOM     38  O   UNL     1      -4.538  -0.625   2.889  0.00  0.00    -0.359 OA
ATOM     39  H   UNL     1      -4.523  -0.128   3.259  0.00  0.00    +0.213 HD
ENDBRANCH  22  38
BRANCH  24  40
ATOM     40  O   UNL     1      -5.212   0.265   2.981  0.00  0.00    -0.386 OA
ATOM     41  H   UNL     1      -5.006   0.249   3.566  0.00  0.00    +0.210 HD
ENDBRANCH  24  40
TORSDOF 5
ENDMDL
MODEL 7
REMARK VINA RESULT:      -7.5      7.565      9.501
REMARK  Name = 16142
REMARK  7 active torsions:
REMARK  status: ('A' for Active; 'I' for Inactive)
REMARK    1  A    between atoms: O_1  and  C_10
REMARK    2  A    between atoms: O_7  and  C_30
REMARK    3  A    between atoms: O_8  and  C_34
REMARK    4  A    between atoms: C_13  and  C_25
REMARK    5  A    between atoms: C_14  and  C_28
REMARK    6  A    between atoms: C_18  and  C_29
REMARK    7  A    between atoms: C_37  and  C_38
REMARK                            x       y       z     vdW  Elec       q    Type
REMARK                         _______ _______ _______ _____ _____    ______ ____
ROOT
ATOM      1  O   UNL     1      -2.213  -0.812  -0.084  0.00  0.00    -0.337 OA
ATOM      2  O   UNL     1      -2.988  -1.716   1.712  0.00  0.00    -0.341 OA
ATOM      3  O   UNL     1      -4.138  -0.218   2.023  0.00  0.00    -0.343 OA
ATOM      4  C   UNL     1       0.947  -5.101  -0.794  0.00  0.00    +0.075 C 
ATOM      5  C   UNL     1       0.225  -4.592  -0.242  0.00  0.00    +0.025 C 
ATOM      6  C   UNL     1      -0.108  -3.696  -0.534  0.00  0.00    +0.008 C 
ATOM      7  C   UNL     1       1.326  -4.671  -1.663  0.00  0.00    +0.004 C 
ATOM      8  C   UNL     1      -0.802  -3.219   0.006  0.00  0.00    +0.034 C 
ATOM      9  C   UNL     1      -1.161  -3.638   0.840  0.00  0.00    +0.005 C 
ATOM     10  C   UNL     1       0.257  -3.246  -1.400  0.00  0.00    +0.005 C 
ATOM     11  C   UNL     1       0.979  -3.737  -1.969  0.00  0.00    +0.010 C 
ATOM     12  C   UNL     1       2.023  -5.323  -2.063  0.00  0.00    +0.027 C 
ATOM     13  C   UNL     1      -0.135  -5.011   0.592  0.00  0.00    +0.007 C 
ATOM     14  C   UNL     1       1.412  -6.017  -0.664  0.00  0.00    +0.036 C 
ATOM     15  C   UNL     1      -0.828  -4.535   1.132  0.00  0.00    +0.005 C 
ATOM     16  C   UNL     1       2.076  -6.154  -1.446  0.00  0.00    +0.011 C 
ATOM     17  C   UNL     1      -1.139  -2.287  -0.312  0.00  0.00    +0.049 C 
ATOM     18  C   UNL     1      -1.884  -3.154   1.413  0.00  0.00    +0.038 C 
ATOM     19  C   UNL     1       1.690  -4.257  -2.498  0.00  0.00    +0.014 C 
ATOM     20  C   UNL     1      -1.861  -1.784   0.246  0.00  0.00    +0.152 C 
ATOM     21  C   UNL     1      -2.236  -2.220   1.114  0.00  0.00    +0.151 C 
ATOM     22  C   UNL     1      -2.965  -0.288   0.496  0.00  0.00    +0.247 C 
ATOM     23  C   UNL     1      -3.355  -0.744   1.401  0.00  0.00    +0.314 C 
ATOM     24  C   UNL     1      -3.331   0.724   0.152  0.00  0.00    +0.181 C 
ATOM     25  C   UNL     1      -4.114   1.270   0.757  0.00  0.00    +0.068 C 
ATOM     26  C   UNL     1      -4.521   0.795   1.699  0.00  0.00    +0.121 C 
ATOM     27  C   UNL     1      -5.214   1.269   2.242  0.00  0.00    +0.038 C 
ENDROOT
BRANCH  12  30
ATOM     28  O   UNL     1       2.993  -5.142  -4.454  0.00  0.00    -0.457 OA
ATOM     29  O   UNL     1       4.616  -4.429  -4.269  0.00  0.00    -0.246 OA
ATOM     30  C   UNL     1       2.552  -5.178  -2.898  0.00  0.00    -0.022 C 
ATOM     31  C   UNL     1       2.256  -5.396  -3.828  0.00  0.00    +0.264 C 
ATOM     32  C   UNL     1       3.473  -4.790  -2.950  0.00  0.00    +0.094 C 
ATOM     33  C   UNL     1       3.745  -4.767  -3.913  0.00  0.00    +0.332 C 
ENDBRANCH  12  30
BRANCH   4  34
ATOM     34  O   UNL     1       0.582  -5.514   0.041  0.00  0.00    -0.388 OA
ATOM     35  H   UNL     1       0.625  -5.212   0.580  0.00  0.00    +0.210 HD
ENDBRANCH   4  34
BRANCH   8  37
ATOM     36  O   UNL     1      -0.203  -1.688  -0.539  0.00  0.00    -0.300 OA
ATOM     37  C   UNL     1      -0.667  -2.554  -0.728  0.00  0.00    +0.230 C 
ENDBRANCH   8  37
BRANCH  22  38
ATOM     38  O   UNL     1      -2.605   0.131  -0.337  0.00  0.00    -0.359 OA
ATOM     39  H   UNL     1      -2.909   0.065  -0.874  0.00  0.00    +0.213 HD
ENDBRANCH  22  38
BRANCH  24  40
ATOM     40  O   UNL     1      -2.964   1.134  -0.684  0.00  0.00    -0.386 OA
ATOM     41  H   UNL     1      -3.141   0.919  -1.238  0.00  0.00    +0.210 HD
ENDBRANCH  24  40
TORSDOF 5
ENDMDL
MODEL 8
REMARK VINA RESULT:      -7.4     11.050     15.501
REMARK  Name = 16142
REMARK  7 active torsions:
REMARK  status: ('A' for Active; 'I' for Inactive)
REMARK    1  A    between atoms: O_1  and  C_10
REMARK    2  A    between atoms: O_7  and  C_30
REMARK    3  A    between atoms: O_8  and  C_34
REMARK    4  A    between atoms: C_13  and  C_25
REMARK    5  A    between atoms: C_14  and  C_28
REMARK    6  A    between atoms: C_18  and  C_29
REMARK    7  A    between atoms: C_37  and  C_38
REMARK                            x       y       z     vdW  Elec       q    Type
REMARK                         _______ _______ _______ _____ _____    ______ ____
ROOT
ATOM      1  O   UNL     1      -2.478  -1.234   3.569  0.00  0.00    -0.337 OA
ATOM      2  O   UNL     1      -4.624  -1.407   3.656  0.00  0.00    -0.341 OA
ATOM      3  O   UNL     1      -4.835   0.022   2.400  0.00  0.00    -0.343 OA
ATOM      4  C   UNL     1      -2.083  -5.263   7.104  0.00  0.00    +0.075 C 
ATOM      5  C   UNL     1      -2.666  -4.622   6.526  0.00  0.00    +0.025 C 
ATOM      6  C   UNL     1      -2.243  -3.934   5.937  0.00  0.00    +0.008 C 
ATOM      7  C   UNL     1      -1.045  -5.186   7.067  0.00  0.00    +0.004 C 
ATOM      8  C   UNL     1      -2.816  -3.325   5.388  0.00  0.00    +0.034 C 
ATOM      9  C   UNL     1      -3.812  -3.405   5.428  0.00  0.00    +0.005 C 
ATOM     10  C   UNL     1      -1.207  -3.838   5.884  0.00  0.00    +0.005 C 
ATOM     11  C   UNL     1      -0.604  -4.469   6.453  0.00  0.00    +0.010 C 
ATOM     12  C   UNL     1      -0.651  -5.900   7.704  0.00  0.00    +0.027 C 
ATOM     13  C   UNL     1      -3.662  -4.702   6.566  0.00  0.00    +0.007 C 
ATOM     14  C   UNL     1      -2.322  -6.025   7.763  0.00  0.00    +0.036 C 
ATOM     15  C   UNL     1      -4.235  -4.093   6.017  0.00  0.00    +0.005 C 
ATOM     16  C   UNL     1      -1.438  -6.418   8.133  0.00  0.00    +0.011 C 
ATOM     17  C   UNL     1      -2.361  -2.614   4.779  0.00  0.00    +0.049 C 
ATOM     18  C   UNL     1      -4.422  -2.778   4.862  0.00  0.00    +0.038 C 
ATOM     19  C   UNL     1      -0.048  -5.111   7.032  0.00  0.00    +0.014 C 
ATOM     20  C   UNL     1      -2.951  -1.976   4.204  0.00  0.00    +0.152 C 
ATOM     21  C   UNL     1      -3.988  -2.059   4.245  0.00  0.00    +0.151 C 
ATOM     22  C   UNL     1      -3.092  -0.571   2.970  0.00  0.00    +0.247 C 
ATOM     23  C   UNL     1      -4.173  -0.657   3.014  0.00  0.00    +0.314 C 
ATOM     24  C   UNL     1      -2.599   0.202   2.309  0.00  0.00    +0.181 C 
ATOM     25  C   UNL     1      -3.239   0.894   1.685  0.00  0.00    +0.068 C 
ATOM     26  C   UNL     1      -4.365   0.803   1.731  0.00  0.00    +0.121 C 
ATOM     27  C   UNL     1      -4.941   1.410   1.183  0.00  0.00    +0.038 C 
ENDROOT
BRANCH  12  30
ATOM     28  O   UNL     1       1.818  -5.948   8.477  0.00  0.00    -0.457 OA
ATOM     29  O   UNL     1       2.598  -7.245   7.536  0.00  0.00    -0.246 OA
ATOM     30  C   UNL     1       0.321  -6.063   7.875  0.00  0.00    -0.022 C 
ATOM     31  C   UNL     1       0.895  -5.565   8.525  0.00  0.00    +0.264 C 
ATOM     32  C   UNL     1       0.889  -6.753   7.425  0.00  0.00    +0.094 C 
ATOM     33  C   UNL     1       1.814  -6.681   7.798  0.00  0.00    +0.332 C 
ENDBRANCH  12  30
BRANCH   4  34
ATOM     34  O   UNL     1      -3.079  -5.337   7.139  0.00  0.00    -0.388 OA
ATOM     35  H   UNL     1      -3.378  -5.698   6.733  0.00  0.00    +0.210 HD
ENDBRANCH   4  34
BRANCH   8  37
ATOM     36  O   UNL     1      -1.596  -2.097   5.436  0.00  0.00    -0.300 OA
ATOM     37  C   UNL     1      -1.911  -2.994   5.125  0.00  0.00    +0.230 C 
ENDBRANCH   8  37
BRANCH  22  38
ATOM     38  O   UNL     1      -2.096  -0.491   2.930  0.00  0.00    -0.359 OA
ATOM     39  H   UNL     1      -1.809  -0.463   2.381  0.00  0.00    +0.213 HD
ENDBRANCH  22  38
BRANCH  24  40
ATOM     40  O   UNL     1      -1.601   0.273   2.276  0.00  0.00    -0.386 OA
ATOM     41  H   UNL     1      -1.259   0.043   2.739  0.00  0.00    +0.210 HD
ENDBRANCH  24  40
TORSDOF 5
ENDMDL
MODEL 9
REMARK VINA RESULT:      -7.3     10.376     14.251
REMARK  Name = 16142
REMARK  7 active torsions:
REMARK  status: ('A' for Active; 'I' for Inactive)
REMARK    1  A    between atoms: O_1  and  C_10
REMARK    2  A    between atoms: O_7  and  C_30
REMARK    3  A    between atoms: O_8  and  C_34
REMARK    4  A    between atoms: C_13  and  C_25
REMARK    5  A    between atoms: C_14  and  C_28
REMARK    6  A    between atoms: C_18  and  C_29
REMARK    7  A    between atoms: C_37  and  C_38
REMARK                            x       y       z     vdW  Elec       q    Type
REMARK                         _______ _______ _______ _____ _____    ______ ____
ROOT
ATOM      1  O   UNL     1      -3.034  -1.542   2.012  0.00  0.00    -0.337 OA
ATOM      2  O   UNL     1      -4.630  -0.913   3.318  0.00  0.00    -0.341 OA
ATOM      3  O   UNL     1      -4.964   0.632   2.238  0.00  0.00    -0.343 OA
ATOM      4  C   UNL     1      -2.242  -5.824   5.161  0.00  0.00    +0.075 C 
ATOM      5  C   UNL     1      -2.760  -4.947   4.942  0.00  0.00    +0.025 C 
ATOM      6  C   UNL     1      -2.526  -4.400   4.138  0.00  0.00    +0.008 C 
ATOM      7  C   UNL     1      -1.470  -6.135   4.535  0.00  0.00    +0.004 C 
ATOM      8  C   UNL     1      -3.032  -3.561   3.941  0.00  0.00    +0.034 C 
ATOM      9  C   UNL     1      -3.773  -3.269   4.546  0.00  0.00    +0.005 C 
ATOM     10  C   UNL     1      -1.758  -4.691   3.498  0.00  0.00    +0.005 C 
ATOM     11  C   UNL     1      -1.226  -5.564   3.698  0.00  0.00    +0.010 C 
ATOM     12  C   UNL     1      -1.085  -7.016   4.918  0.00  0.00    +0.027 C 
ATOM     13  C   UNL     1      -3.500  -4.655   5.548  0.00  0.00    +0.007 C 
ATOM     14  C   UNL     1      -2.328  -6.516   5.927  0.00  0.00    +0.036 C 
ATOM     15  C   UNL     1      -4.007  -3.816   5.350  0.00  0.00    +0.005 C 
ATOM     16  C   UNL     1      -1.615  -7.252   5.777  0.00  0.00    +0.011 C 
ATOM     17  C   UNL     1      -2.777  -3.001   3.100  0.00  0.00    +0.049 C 
ATOM     18  C   UNL     1      -4.309  -2.397   4.353  0.00  0.00    +0.038 C 
ATOM     19  C   UNL     1      -0.728  -6.432   3.933  0.00  0.00    +0.014 C 
ATOM     20  C   UNL     1      -3.300  -2.126   2.888  0.00  0.00    +0.152 C 
ATOM     21  C   UNL     1      -4.071  -1.821   3.518  0.00  0.00    +0.151 C 
ATOM     22  C   UNL     1      -3.579  -0.630   1.790  0.00  0.00    +0.247 C 
ATOM     23  C   UNL     1      -4.382  -0.313   2.448  0.00  0.00    +0.314 C 
ATOM     24  C   UNL     1      -3.302  -0.023   0.878  0.00  0.00    +0.181 C 
ATOM     25  C   UNL     1      -3.869   0.927   0.647  0.00  0.00    +0.068 C 
ATOM     26  C   UNL     1      -4.706   1.257   1.333  0.00  0.00    +0.121 C 
ATOM     27  C   UNL     1      -5.214   2.096   1.138  0.00  0.00    +0.038 C 
ENDROOT
BRANCH  12  30
ATOM     28  O   UNL     1       0.501  -8.604   3.632  0.00  0.00    -0.457 OA
ATOM     29  O   UNL     1       2.136  -8.275   4.262  0.00  0.00    -0.246 OA
ATOM     30  C   UNL     1      -0.333  -7.547   4.528  0.00  0.00    -0.022 C 
ATOM     31  C   UNL     1      -0.414  -8.246   3.818  0.00  0.00    +0.264 C 
ATOM     32  C   UNL     1       0.631  -7.473   4.781  0.00  0.00    +0.094 C 
ATOM     33  C   UNL     1       1.147  -8.126   4.227  0.00  0.00    +0.332 C 
ENDBRANCH  12  30
BRANCH   4  34
ATOM     34  O   UNL     1      -2.983  -5.526   5.762  0.00  0.00    -0.388 OA
ATOM     35  H   UNL     1      -3.439  -5.169   5.539  0.00  0.00    +0.210 HD
ENDBRANCH   4  34
BRANCH   8  37
ATOM     36  O   UNL     1      -2.719  -3.744   2.247  0.00  0.00    -0.300 OA
ATOM     37  C   UNL     1      -2.391  -3.561   3.174  0.00  0.00    +0.230 C 
ENDBRANCH   8  37
BRANCH  22  38
ATOM     38  O   UNL     1      -2.838  -0.922   1.185  0.00  0.00    -0.359 OA
ATOM     39  H   UNL     1      -2.368  -1.258   1.410  0.00  0.00    +0.213 HD
ENDBRANCH  22  38
BRANCH  24  40
ATOM     40  O   UNL     1      -2.560  -0.324   0.279  0.00  0.00    -0.386 OA
ATOM     41  H   UNL     1      -2.274  -0.863   0.388  0.00  0.00    +0.210 HD
ENDBRANCH  24  40
TORSDOF 5
ENDMDL
