MODEL 1
REMARK VINA RESULT:      -6.8      0.000      0.000
REMARK  Name = 16142
REMARK  7 active torsions:
REMARK  status: ('A' for Active; 'I' for Inactive)
REMARK    1  A    between atoms: O_1  and  C_10
REMARK    2  A    between atoms: O_7  and  C_30
REMARK    3  A    between atoms: O_8  and  C_34
REMARK    4  A    between atoms: C_13  and  C_25
REMARK    5  A    between atoms: C_14  and  C_28
REMARK    6  A    between atoms: C_18  and  C_29
REMARK    7  A    between atoms: C_37  and  C_38
REMARK                            x       y       z     vdW  Elec       q    Type
REMARK                         _______ _______ _______ _____ _____    ______ ____
ROOT
ATOM      1  O   UNL     1       7.090   5.731  -1.209  0.00  0.00    -0.337 OA
ATOM      2  O   UNL     1       6.877   7.788  -1.816  0.00  0.00    -0.341 OA
ATOM      3  O   UNL     1       6.615   7.269  -3.640  0.00  0.00    -0.343 OA
ATOM      4  C   UNL     1       7.807   7.375   3.858  0.00  0.00    +0.075 C 
ATOM      5  C   UNL     1       7.634   7.592   2.853  0.00  0.00    +0.025 C 
ATOM      6  C   UNL     1       7.567   6.860   2.174  0.00  0.00    +0.008 C 
ATOM      7  C   UNL     1       7.911   6.383   4.159  0.00  0.00    +0.004 C 
ATOM      8  C   UNL     1       7.401   7.083   1.214  0.00  0.00    +0.034 C 
ATOM      9  C   UNL     1       7.302   8.038   0.932  0.00  0.00    +0.005 C 
ATOM     10  C   UNL     1       7.668   5.861   2.453  0.00  0.00    +0.005 C 
ATOM     11  C   UNL     1       7.841   5.621   3.451  0.00  0.00    +0.010 C 
ATOM     12  C   UNL     1       8.074   6.377   5.180  0.00  0.00    +0.027 C 
ATOM     13  C   UNL     1       7.536   8.546   2.571  0.00  0.00    +0.007 C 
ATOM     14  C   UNL     1       7.907   7.974   4.696  0.00  0.00    +0.036 C 
ATOM     15  C   UNL     1       7.370   8.769   1.611  0.00  0.00    +0.005 C 
ATOM     16  C   UNL     1       8.072   7.359   5.513  0.00  0.00    +0.011 C 
ATOM     17  C   UNL     1       7.333   6.311   0.519  0.00  0.00    +0.049 C 
ATOM     18  C   UNL     1       7.129   8.285  -0.065  0.00  0.00    +0.038 C 
ATOM     19  C   UNL     1       8.010   5.431   4.447  0.00  0.00    +0.014 C 
ATOM     20  C   UNL     1       7.161   6.535  -0.484  0.00  0.00    +0.152 C 
ATOM     21  C   UNL     1       7.058   7.529  -0.778  0.00  0.00    +0.151 C 
ATOM     22  C   UNL     1       6.910   5.964  -2.253  0.00  0.00    +0.247 C 
ATOM     23  C   UNL     1       6.803   7.000  -2.558  0.00  0.00    +0.314 C 
ATOM     24  C   UNL     1       6.837   5.126  -3.007  0.00  0.00    +0.181 C 
ATOM     25  C   UNL     1       6.649   5.369  -4.095  0.00  0.00    +0.068 C 
ATOM     26  C   UNL     1       6.538   6.449  -4.413  0.00  0.00    +0.121 C 
ATOM     27  C   UNL     1       6.372   6.675  -5.373  0.00  0.00    +0.038 C 
ENDROOT
BRANCH  12  30
ATOM     28  O   UNL     1       7.927   4.270   6.674  0.00  0.00    -0.457 OA
ATOM     29  O   UNL     1       9.610   3.768   6.975  0.00  0.00    -0.246 OA
ATOM     30  C   UNL     1       8.211   5.566   5.749  0.00  0.00    -0.022 C 
ATOM     31  C   UNL     1       7.490   5.011   6.164  0.00  0.00    +0.264 C 
ATOM     32  C   UNL     1       9.093   5.168   6.002  0.00  0.00    +0.094 C 
ATOM     33  C   UNL     1       8.917   4.367   6.574  0.00  0.00    +0.332 C 
ENDBRANCH  12  30
BRANCH   4  34
ATOM     34  O   UNL     1       7.707   8.327   3.568  0.00  0.00    -0.388 OA
ATOM     35  H   UNL     1       7.457   8.744   3.953  0.00  0.00    +0.210 HD
ENDBRANCH   4  34
BRANCH   8  37
ATOM     36  O   UNL     1       8.229   5.647   0.712  0.00  0.00    -0.300 OA
ATOM     37  C   UNL     1       7.447   6.087   1.155  0.00  0.00    +0.230 C 
ENDBRANCH   8  37
BRANCH  22  38
ATOM     38  O   UNL     1       7.009   5.010  -1.971  0.00  0.00    -0.359 OA
ATOM     39  H   UNL     1       7.372   4.865  -1.489  0.00  0.00    +0.213 HD
ENDBRANCH  22  38
BRANCH  24  40
ATOM     40  O   UNL     1       6.937   4.175  -2.714  0.00  0.00    -0.386 OA
ATOM     41  H   UNL     1       7.377   3.818  -2.966  0.00  0.00    +0.210 HD
ENDBRANCH  24  40
TORSDOF 5
ENDMDL
MODEL 2
REMARK VINA RESULT:      -6.8      1.718      2.613
REMARK  Name = 16142
REMARK  7 active torsions:
REMARK  status: ('A' for Active; 'I' for Inactive)
REMARK    1  A    between atoms: O_1  and  C_10
REMARK    2  A    between atoms: O_7  and  C_30
REMARK    3  A    between atoms: O_8  and  C_34
REMARK    4  A    between atoms: C_13  and  C_25
REMARK    5  A    between atoms: C_14  and  C_28
REMARK    6  A    between atoms: C_18  and  C_29
REMARK    7  A    between atoms: C_37  and  C_38
REMARK                            x       y       z     vdW  Elec       q    Type
REMARK                         _______ _______ _______ _____ _____    ______ ____
ROOT
ATOM      1  O   UNL     1       7.536   6.858  -2.410  0.00  0.00    -0.337 OA
ATOM      2  O   UNL     1       5.630   6.013  -2.955  0.00  0.00    -0.341 OA
ATOM      3  O   UNL     1       6.117   5.995  -4.806  0.00  0.00    -0.343 OA
ATOM      4  C   UNL     1       5.994   6.832   2.738  0.00  0.00    +0.075 C 
ATOM      5  C   UNL     1       5.797   6.633   1.735  0.00  0.00    +0.025 C 
ATOM      6  C   UNL     1       6.477   6.829   1.029  0.00  0.00    +0.008 C 
ATOM      7  C   UNL     1       6.913   7.241   3.010  0.00  0.00    +0.004 C 
ATOM      8  C   UNL     1       6.274   6.633   0.070  0.00  0.00    +0.034 C 
ATOM      9  C   UNL     1       5.389   6.241  -0.183  0.00  0.00    +0.005 C 
ATOM     10  C   UNL     1       7.403   7.238   1.277  0.00  0.00    +0.005 C 
ATOM     11  C   UNL     1       7.623   7.445   2.274  0.00  0.00    +0.010 C 
ATOM     12  C   UNL     1       6.916   7.363   4.037  0.00  0.00    +0.027 C 
ATOM     13  C   UNL     1       4.912   6.241   1.482  0.00  0.00    +0.007 C 
ATOM     14  C   UNL     1       5.436   6.705   3.601  0.00  0.00    +0.036 C 
ATOM     15  C   UNL     1       4.708   6.045   0.523  0.00  0.00    +0.005 C 
ATOM     16  C   UNL     1       6.004   7.032   4.403  0.00  0.00    +0.011 C 
ATOM     17  C   UNL     1       6.992   6.842  -0.654  0.00  0.00    +0.049 C 
ATOM     18  C   UNL     1       5.163   6.031  -1.178  0.00  0.00    +0.038 C 
ATOM     19  C   UNL     1       7.796   7.633   3.270  0.00  0.00    +0.014 C 
ATOM     20  C   UNL     1       6.787   6.640  -1.655  0.00  0.00    +0.152 C 
ATOM     21  C   UNL     1       5.867   6.232  -1.919  0.00  0.00    +0.151 C 
ATOM     22  C   UNL     1       7.323   6.648  -3.453  0.00  0.00    +0.247 C 
ATOM     23  C   UNL     1       6.363   6.223  -3.727  0.00  0.00    +0.314 C 
ATOM     24  C   UNL     1       8.103   6.875  -4.239  0.00  0.00    +0.181 C 
ATOM     25  C   UNL     1       7.881   6.656  -5.325  0.00  0.00    +0.068 C 
ATOM     26  C   UNL     1       6.880   6.213  -5.610  0.00  0.00    +0.121 C 
ATOM     27  C   UNL     1       6.673   6.015  -6.569  0.00  0.00    +0.038 C 
ENDROOT
BRANCH  12  30
ATOM     28  O   UNL     1       8.665   8.769   5.324  0.00  0.00    -0.457 OA
ATOM     29  O   UNL     1       9.770   7.595   6.084  0.00  0.00    -0.246 OA
ATOM     30  C   UNL     1       7.666   7.734   4.583  0.00  0.00    -0.022 C 
ATOM     31  C   UNL     1       7.854   8.703   4.743  0.00  0.00    +0.264 C 
ATOM     32  C   UNL     1       8.361   7.201   5.066  0.00  0.00    +0.094 C 
ATOM     33  C   UNL     1       8.978   7.841   5.524  0.00  0.00    +0.332 C 
ENDBRANCH  12  30
BRANCH   4  34
ATOM     34  O   UNL     1       5.112   6.440   2.477  0.00  0.00    -0.388 OA
ATOM     35  H   UNL     1       4.632   6.813   2.354  0.00  0.00    +0.210 HD
ENDBRANCH   4  34
BRANCH   8  37
ATOM     36  O   UNL     1       7.338   7.913  -0.409  0.00  0.00    -0.300 OA
ATOM     37  C   UNL     1       7.198   7.001  -0.022  0.00  0.00    +0.230 C 
ENDBRANCH   8  37
BRANCH  22  38
ATOM     38  O   UNL     1       8.207   7.040  -3.200  0.00  0.00    -0.359 OA
ATOM     39  H   UNL     1       8.589   7.254  -3.639  0.00  0.00    +0.213 HD
ENDBRANCH  22  38
BRANCH  24  40
ATOM     40  O   UNL     1       8.984   7.267  -3.974  0.00  0.00    -0.386 OA
ATOM     41  H   UNL     1       9.347   6.969  -3.570  0.00  0.00    +0.210 HD
ENDBRANCH  24  40
TORSDOF 5
ENDMDL
MODEL 3
REMARK VINA RESULT:      -6.5      5.681     11.502
REMARK  Name = 16142
REMARK  7 active torsions:
REMARK  status: ('A' for Active; 'I' for Inactive)
REMARK    1  A    between atoms: O_1  and  C_10
REMARK    2  A    between atoms: O_7  and  C_30
REMARK    3  A    between atoms: O_8  and  C_34
REMARK    4  A    between atoms: C_13  and  C_25
REMARK    5  A    between atoms: C_14  and  C_28
REMARK    6  A    between atoms: C_18  and  C_29
REMARK    7  A    between atoms: C_37  and  C_38
REMARK                            x       y       z     vdW  Elec       q    Type
REMARK                         _______ _______ _______ _____ _____    ______ ____
ROOT
ATOM      1  O   UNL     1       7.501   5.627  -5.246  0.00  0.00    -0.337 OA
ATOM      2  O   UNL     1       5.926   6.931  -5.923  0.00  0.00    -0.341 OA
ATOM      3  O   UNL     1       5.454   7.371  -4.120  0.00  0.00    -0.343 OA
ATOM      4  C   UNL     1       8.683   4.512 -10.369  0.00  0.00    +0.075 C 
ATOM      5  C   UNL     1       8.104   5.015  -9.664  0.00  0.00    +0.025 C 
ATOM      6  C   UNL     1       8.271   4.899  -8.685  0.00  0.00    +0.008 C 
ATOM      7  C   UNL     1       9.447   3.880 -10.049  0.00  0.00    +0.004 C 
ATOM      8  C   UNL     1       7.706   5.388  -8.020  0.00  0.00    +0.034 C 
ATOM      9  C   UNL     1       6.975   5.994  -8.334  0.00  0.00    +0.005 C 
ATOM     10  C   UNL     1       9.029   4.271  -8.342  0.00  0.00    +0.005 C 
ATOM     11  C   UNL     1       9.620   3.759  -9.029  0.00  0.00    +0.010 C 
ATOM     12  C   UNL     1       9.900   3.480 -10.889  0.00  0.00    +0.027 C 
ATOM     13  C   UNL     1       7.373   5.621  -9.978  0.00  0.00    +0.007 C 
ATOM     14  C   UNL     1       8.671   4.498 -11.404  0.00  0.00    +0.036 C 
ATOM     15  C   UNL     1       6.808   6.110  -9.313  0.00  0.00    +0.005 C 
ATOM     16  C   UNL     1       9.421   3.861 -11.725  0.00  0.00    +0.011 C 
ATOM     17  C   UNL     1       7.892   5.257  -7.004  0.00  0.00    +0.049 C 
ATOM     18  C   UNL     1       6.379   6.510  -7.653  0.00  0.00    +0.038 C 
ATOM     19  C   UNL     1      10.180   3.272  -9.741  0.00  0.00    +0.014 C 
ATOM     20  C   UNL     1       7.308   5.763  -6.305  0.00  0.00    +0.152 C 
ATOM     21  C   UNL     1       6.547   6.394  -6.631  0.00  0.00    +0.151 C 
ATOM     22  C   UNL     1       6.894   6.154  -4.518  0.00  0.00    +0.247 C 
ATOM     23  C   UNL     1       6.100   6.811  -4.859  0.00  0.00    +0.314 C 
ATOM     24  C   UNL     1       7.095   6.011  -3.415  0.00  0.00    +0.181 C 
ATOM     25  C   UNL     1       6.462   6.560  -2.656  0.00  0.00    +0.068 C 
ATOM     26  C   UNL     1       5.636   7.245  -3.012  0.00  0.00    +0.121 C 
ATOM     27  C   UNL     1       5.069   7.736  -2.350  0.00  0.00    +0.038 C 
ENDROOT
BRANCH  12  30
ATOM     28  O   UNL     1      11.528   1.471 -10.823  0.00  0.00    -0.457 OA
ATOM     29  O   UNL     1      13.155   2.154 -11.075  0.00  0.00    -0.246 OA
ATOM     30  C   UNL     1      10.666   2.837 -10.893  0.00  0.00    -0.022 C 
ATOM     31  C   UNL     1      10.604   1.847 -10.770  0.00  0.00    +0.264 C 
ATOM     32  C   UNL     1      11.629   3.073 -11.023  0.00  0.00    +0.094 C 
ATOM     33  C   UNL     1      12.162   2.228 -10.979  0.00  0.00    +0.332 C 
ENDBRANCH  12  30
BRANCH   4  34
ATOM     34  O   UNL     1       7.950   5.120 -10.675  0.00  0.00    -0.388 OA
ATOM     35  H   UNL     1       8.038   5.733 -10.680  0.00  0.00    +0.210 HD
ENDBRANCH   4  34
BRANCH   8  37
ATOM     36  O   UNL     1       7.959   4.139  -6.846  0.00  0.00    -0.300 OA
ATOM     37  C   UNL     1       8.314   4.893  -7.400  0.00  0.00    +0.230 C 
ENDBRANCH   8  37
BRANCH  22  38
ATOM     38  O   UNL     1       7.625   5.548  -4.204  0.00  0.00    -0.359 OA
ATOM     39  H   UNL     1       8.140   5.482  -4.543  0.00  0.00    +0.213 HD
ENDBRANCH  22  38
BRANCH  24  40
ATOM     40  O   UNL     1       7.829   5.403  -3.112  0.00  0.00    -0.386 OA
ATOM     41  H   UNL     1       8.060   5.458  -2.539  0.00  0.00    +0.210 HD
ENDBRANCH  24  40
TORSDOF 5
ENDMDL
MODEL 4
REMARK VINA RESULT:      -6.4      3.998      7.769
REMARK  Name = 16142
REMARK  7 active torsions:
REMARK  status: ('A' for Active; 'I' for Inactive)
REMARK    1  A    between atoms: O_1  and  C_10
REMARK    2  A    between atoms: O_7  and  C_30
REMARK    3  A    between atoms: O_8  and  C_34
REMARK    4  A    between atoms: C_13  and  C_25
REMARK    5  A    between atoms: C_14  and  C_28
REMARK    6  A    between atoms: C_18  and  C_29
REMARK    7  A    between atoms: C_37  and  C_38
REMARK                            x       y       z     vdW  Elec       q    Type
REMARK                         _______ _______ _______ _____ _____    ______ ____
ROOT
ATOM      1  O   UNL     1       8.816   4.840  -7.674  0.00  0.00    -0.337 OA
ATOM      2  O   UNL     1       7.587   5.478  -9.326  0.00  0.00    -0.341 OA
ATOM      3  O   UNL     1       8.778   4.663 -10.584  0.00  0.00    -0.343 OA
ATOM      4  C   UNL     1       5.360   7.186  -4.292  0.00  0.00    +0.075 C 
ATOM      5  C   UNL     1       5.650   6.942  -5.262  0.00  0.00    +0.025 C 
ATOM      6  C   UNL     1       6.485   6.420  -5.433  0.00  0.00    +0.008 C 
ATOM      7  C   UNL     1       5.949   6.881  -3.488  0.00  0.00    +0.004 C 
ATOM      8  C   UNL     1       6.751   6.193  -6.370  0.00  0.00    +0.034 C 
ATOM      9  C   UNL     1       6.181   6.489  -7.137  0.00  0.00    +0.005 C 
ATOM     10  C   UNL     1       7.089   6.104  -4.645  0.00  0.00    +0.005 C 
ATOM     11  C   UNL     1       6.819   6.337  -3.666  0.00  0.00    +0.010 C 
ATOM     12  C   UNL     1       5.498   7.217  -2.620  0.00  0.00    +0.027 C 
ATOM     13  C   UNL     1       5.080   7.238  -6.029  0.00  0.00    +0.007 C 
ATOM     14  C   UNL     1       4.550   7.708  -3.913  0.00  0.00    +0.036 C 
ATOM     15  C   UNL     1       5.346   7.012  -6.966  0.00  0.00    +0.005 C 
ATOM     16  C   UNL     1       4.635   7.727  -2.881  0.00  0.00    +0.011 C 
ATOM     17  C   UNL     1       7.623   5.648  -6.532  0.00  0.00    +0.049 C 
ATOM     18  C   UNL     1       6.445   6.260  -8.118  0.00  0.00    +0.038 C 
ATOM     19  C   UNL     1       6.514   6.588  -2.717  0.00  0.00    +0.014 C 
ATOM     20  C   UNL     1       7.906   5.408  -7.505  0.00  0.00    +0.152 C 
ATOM     21  C   UNL     1       7.314   5.716  -8.303  0.00  0.00    +0.151 C 
ATOM     22  C   UNL     1       9.111   4.590  -8.687  0.00  0.00    +0.247 C 
ATOM     23  C   UNL     1       8.492   4.911  -9.519  0.00  0.00    +0.314 C 
ATOM     24  C   UNL     1      10.057   3.998  -8.863  0.00  0.00    +0.181 C 
ATOM     25  C   UNL     1      10.365   3.737  -9.919  0.00  0.00    +0.068 C 
ATOM     26  C   UNL     1       9.720   4.072 -10.785  0.00  0.00    +0.121 C 
ATOM     27  C   UNL     1       9.983   3.847 -11.724  0.00  0.00    +0.038 C 
ENDROOT
BRANCH  12  30
ATOM     28  O   UNL     1       6.073   6.445  -0.218  0.00  0.00    -0.457 OA
ATOM     29  O   UNL     1       7.243   7.634   0.409  0.00  0.00    -0.246 OA
ATOM     30  C   UNL     1       5.835   7.074  -1.689  0.00  0.00    -0.022 C 
ATOM     31  C   UNL     1       5.577   6.326  -1.078  0.00  0.00    +0.264 C 
ATOM     32  C   UNL     1       6.491   7.656  -1.207  0.00  0.00    +0.094 C 
ATOM     33  C   UNL     1       6.638   7.266  -0.297  0.00  0.00    +0.332 C 
ENDBRANCH  12  30
BRANCH   4  34
ATOM     34  O   UNL     1       4.796   7.479  -5.064  0.00  0.00    -0.388 OA
ATOM     35  H   UNL     1       5.062   7.724  -5.567  0.00  0.00    +0.210 HD
ENDBRANCH   4  34
BRANCH   8  37
ATOM     36  O   UNL     1       7.572   4.770  -5.820  0.00  0.00    -0.300 OA
ATOM     37  C   UNL     1       7.503   5.767  -5.869  0.00  0.00    +0.230 C 
ENDBRANCH   8  37
BRANCH  22  38
ATOM     38  O   UNL     1       9.680   4.293  -7.921  0.00  0.00    -0.359 OA
ATOM     39  H   UNL     1      10.072   4.693  -7.653  0.00  0.00    +0.213 HD
ENDBRANCH  22  38
BRANCH  24  40
ATOM     40  O   UNL     1      10.620   3.707  -8.089  0.00  0.00    -0.386 OA
ATOM     41  H   UNL     1      10.351   3.475  -7.581  0.00  0.00    +0.210 HD
ENDBRANCH  24  40
TORSDOF 5
ENDMDL
MODEL 5
REMARK VINA RESULT:      -6.3      3.163      9.668
REMARK  Name = 16142
REMARK  7 active torsions:
REMARK  status: ('A' for Active; 'I' for Inactive)
REMARK    1  A    between atoms: O_1  and  C_10
REMARK    2  A    between atoms: O_7  and  C_30
REMARK    3  A    between atoms: O_8  and  C_34
REMARK    4  A    between atoms: C_13  and  C_25
REMARK    5  A    between atoms: C_14  and  C_28
REMARK    6  A    between atoms: C_18  and  C_29
REMARK    7  A    between atoms: C_37  and  C_38
REMARK                            x       y       z     vdW  Elec       q    Type
REMARK                         _______ _______ _______ _____ _____    ______ ____
ROOT
ATOM      1  O   UNL     1       7.374   7.166  -2.271  0.00  0.00    -0.337 OA
ATOM      2  O   UNL     1       5.636   6.253  -1.384  0.00  0.00    -0.341 OA
ATOM      3  O   UNL     1       6.045   7.024   0.320  0.00  0.00    -0.343 OA
ATOM      4  C   UNL     1       6.067   4.918  -6.974  0.00  0.00    +0.075 C 
ATOM      5  C   UNL     1       5.870   5.079  -5.964  0.00  0.00    +0.025 C 
ATOM      6  C   UNL     1       6.475   5.649  -5.407  0.00  0.00    +0.008 C 
ATOM      7  C   UNL     1       6.905   5.356  -7.410  0.00  0.00    +0.004 C 
ATOM      8  C   UNL     1       6.273   5.794  -4.438  0.00  0.00    +0.034 C 
ATOM      9  C   UNL     1       5.466   5.371  -4.027  0.00  0.00    +0.005 C 
ATOM     10  C   UNL     1       7.319   6.096  -5.822  0.00  0.00    +0.005 C 
ATOM     11  C   UNL     1       7.536   5.949  -6.830  0.00  0.00    +0.010 C 
ATOM     12  C   UNL     1       6.925   5.080  -8.407  0.00  0.00    +0.027 C 
ATOM     13  C   UNL     1       5.063   4.656  -5.552  0.00  0.00    +0.007 C 
ATOM     14  C   UNL     1       5.575   4.375  -7.706  0.00  0.00    +0.036 C 
ATOM     15  C   UNL     1       4.861   4.802  -4.583  0.00  0.00    +0.005 C 
ATOM     16  C   UNL     1       6.105   4.474  -8.590  0.00  0.00    +0.011 C 
ATOM     17  C   UNL     1       6.912   6.389  -3.872  0.00  0.00    +0.049 C 
ATOM     18  C   UNL     1       5.243   5.514  -3.019  0.00  0.00    +0.038 C 
ATOM     19  C   UNL     1       7.711   5.777  -7.828  0.00  0.00    +0.014 C 
ATOM     20  C   UNL     1       6.709   6.546  -2.862  0.00  0.00    +0.152 C 
ATOM     21  C   UNL     1       5.869   6.105  -2.433  0.00  0.00    +0.151 C 
ATOM     22  C   UNL     1       7.163   7.329  -1.220  0.00  0.00    +0.247 C 
ATOM     23  C   UNL     1       6.287   6.870  -0.773  0.00  0.00    +0.314 C 
ATOM     24  C   UNL     1       7.856   7.975  -0.604  0.00  0.00    +0.181 C 
ATOM     25  C   UNL     1       7.636   8.145   0.491  0.00  0.00    +0.068 C 
ATOM     26  C   UNL     1       6.723   7.666   0.956  0.00  0.00    +0.121 C 
ATOM     27  C   UNL     1       6.518   7.810   1.925  0.00  0.00    +0.038 C 
ENDROOT
BRANCH  12  30
ATOM     28  O   UNL     1       8.969   5.388  -9.962  0.00  0.00    -0.457 OA
ATOM     29  O   UNL     1       8.602   6.808 -10.975  0.00  0.00    -0.246 OA
ATOM     30  C   UNL     1       7.616   5.350  -9.078  0.00  0.00    -0.022 C 
ATOM     31  C   UNL     1       8.494   4.897  -9.233  0.00  0.00    +0.264 C 
ATOM     32  C   UNL     1       7.549   6.121  -9.711  0.00  0.00    +0.094 C 
ATOM     33  C   UNL     1       8.386   6.144 -10.258  0.00  0.00    +0.332 C 
ENDBRANCH  12  30
BRANCH   4  34
ATOM     34  O   UNL     1       5.262   4.498  -6.555  0.00  0.00    -0.388 OA
ATOM     35  H   UNL     1       5.254   4.382  -5.946  0.00  0.00    +0.210 HD
ENDBRANCH   4  34
BRANCH   8  37
ATOM     36  O   UNL     1       7.955   6.017  -4.092  0.00  0.00    -0.300 OA
ATOM     37  C   UNL     1       7.110   6.333  -4.524  0.00  0.00    +0.230 C 
ENDBRANCH   8  37
BRANCH  22  38
ATOM     38  O   UNL     1       7.970   7.753  -1.631  0.00  0.00    -0.359 OA
ATOM     39  H   UNL     1       8.163   8.308  -1.435  0.00  0.00    +0.213 HD
ENDBRANCH  22  38
BRANCH  24  40
ATOM     40  O   UNL     1       8.661   8.394  -1.026  0.00  0.00    -0.386 OA
ATOM     41  H   UNL     1       9.195   8.423  -0.713  0.00  0.00    +0.210 HD
ENDBRANCH  24  40
TORSDOF 5
ENDMDL
MODEL 6
REMARK VINA RESULT:      -6.3      4.396     10.624
REMARK  Name = 16142
REMARK  7 active torsions:
REMARK  status: ('A' for Active; 'I' for Inactive)
REMARK    1  A    between atoms: O_1  and  C_10
REMARK    2  A    between atoms: O_7  and  C_30
REMARK    3  A    between atoms: O_8  and  C_34
REMARK    4  A    between atoms: C_13  and  C_25
REMARK    5  A    between atoms: C_14  and  C_28
REMARK    6  A    between atoms: C_18  and  C_29
REMARK    7  A    between atoms: C_37  and  C_38
REMARK                            x       y       z     vdW  Elec       q    Type
REMARK                         _______ _______ _______ _____ _____    ______ ____
ROOT
ATOM      1  O   UNL     1       6.978   5.192  -3.759  0.00  0.00    -0.337 OA
ATOM      2  O   UNL     1       5.230   6.439  -3.571  0.00  0.00    -0.341 OA
ATOM      3  O   UNL     1       5.167   6.144  -1.680  0.00  0.00    -0.343 OA
ATOM      4  C   UNL     1       6.993   6.135  -9.049  0.00  0.00    +0.075 C 
ATOM      5  C   UNL     1       6.570   6.276  -8.108  0.00  0.00    +0.025 C 
ATOM      6  C   UNL     1       6.964   5.841  -7.298  0.00  0.00    +0.008 C 
ATOM      7  C   UNL     1       7.838   5.534  -9.148  0.00  0.00    +0.004 C 
ATOM      8  C   UNL     1       6.546   5.985  -6.400  0.00  0.00    +0.034 C 
ATOM      9  C   UNL     1       5.735   6.563  -6.313  0.00  0.00    +0.005 C 
ATOM     10  C   UNL     1       7.808   5.236  -7.373  0.00  0.00    +0.005 C 
ATOM     11  C   UNL     1       8.248   5.081  -8.304  0.00  0.00    +0.010 C 
ATOM     12  C   UNL     1       8.103   5.521 -10.148  0.00  0.00    +0.027 C 
ATOM     13  C   UNL     1       5.759   6.854  -8.020  0.00  0.00    +0.007 C 
ATOM     14  C   UNL     1       6.743   6.489  -9.990  0.00  0.00    +0.036 C 
ATOM     15  C   UNL     1       5.342   6.998  -7.123  0.00  0.00    +0.005 C 
ATOM     16  C   UNL     1       7.427   6.109 -10.668  0.00  0.00    +0.011 C 
ATOM     17  C   UNL     1       6.968   5.526  -5.566  0.00  0.00    +0.049 C 
ATOM     18  C   UNL     1       5.290   6.722  -5.385  0.00  0.00    +0.038 C 
ATOM     19  C   UNL     1       8.650   4.957  -9.243  0.00  0.00    +0.014 C 
ATOM     20  C   UNL     1       6.539   5.671  -4.628  0.00  0.00    +0.152 C 
ATOM     21  C   UNL     1       5.695   6.273  -4.537  0.00  0.00    +0.151 C 
ATOM     22  C   UNL     1       6.531   5.343  -2.781  0.00  0.00    +0.247 C 
ATOM     23  C   UNL     1       5.651   5.971  -2.687  0.00  0.00    +0.314 C 
ATOM     24  C   UNL     1       6.988   4.845  -1.876  0.00  0.00    +0.181 C 
ATOM     25  C   UNL     1       6.523   5.002  -0.858  0.00  0.00    +0.068 C 
ATOM     26  C   UNL     1       5.606   5.656  -0.760  0.00  0.00    +0.121 C 
ATOM     27  C   UNL     1       5.186   5.802   0.136  0.00  0.00    +0.038 C 
ENDROOT
BRANCH  12  30
ATOM     28  O   UNL     1       9.784   3.855 -11.194  0.00  0.00    -0.457 OA
ATOM     29  O   UNL     1      11.306   4.760 -11.394  0.00  0.00    -0.246 OA
ATOM     30  C   UNL     1       8.876   5.026 -10.545  0.00  0.00    -0.022 C 
ATOM     31  C   UNL     1       8.874   4.071 -10.840  0.00  0.00    +0.264 C 
ATOM     32  C   UNL     1       9.787   5.401 -10.717  0.00  0.00    +0.094 C 
ATOM     33  C   UNL     1      10.348   4.676 -11.118  0.00  0.00    +0.332 C 
ENDBRANCH  12  30
BRANCH   4  34
ATOM     34  O   UNL     1       6.182   6.712  -8.954  0.00  0.00    -0.388 OA
ATOM     35  H   UNL     1       5.678   6.598  -9.297  0.00  0.00    +0.210 HD
ENDBRANCH   4  34
BRANCH   8  37
ATOM     36  O   UNL     1       8.070   5.744  -5.613  0.00  0.00    -0.300 OA
ATOM     37  C   UNL     1       7.303   5.384  -6.145  0.00  0.00    +0.230 C 
ENDBRANCH   8  37
BRANCH  22  38
ATOM     38  O   UNL     1       7.342   4.765  -2.869  0.00  0.00    -0.359 OA
ATOM     39  H   UNL     1       7.892   4.970  -2.668  0.00  0.00    +0.213 HD
ENDBRANCH  22  38
BRANCH  24  40
ATOM     40  O   UNL     1       7.800   4.269  -1.975  0.00  0.00    -0.386 OA
ATOM     41  H   UNL     1       8.222   4.400  -2.409  0.00  0.00    +0.210 HD
ENDBRANCH  24  40
TORSDOF 5
ENDMDL
MODEL 7
REMARK VINA RESULT:      -6.0      7.999     12.136
REMARK  Name = 16142
REMARK  7 active torsions:
REMARK  status: ('A' for Active; 'I' for Inactive)
REMARK    1  A    between atoms: O_1  and  C_10
REMARK    2  A    between atoms: O_7  and  C_30
REMARK    3  A    between atoms: O_8  and  C_34
REMARK    4  A    between atoms: C_13  and  C_25
REMARK    5  A    between atoms: C_14  and  C_28
REMARK    6  A    between atoms: C_18  and  C_29
REMARK    7  A    between atoms: C_37  and  C_38
REMARK                            x       y       z     vdW  Elec       q    Type
REMARK                         _______ _______ _______ _____ _____    ______ ____
ROOT
ATOM      1  O   UNL     1       7.861   4.385  -6.951  0.00  0.00    -0.337 OA
ATOM      2  O   UNL     1       7.626   6.027  -8.327  0.00  0.00    -0.341 OA
ATOM      3  O   UNL     1       6.366   6.879  -7.165  0.00  0.00    -0.343 OA
ATOM      4  C   UNL     1      11.378   2.142 -10.340  0.00  0.00    +0.075 C 
ATOM      5  C   UNL     1      10.726   2.917 -10.097  0.00  0.00    +0.025 C 
ATOM      6  C   UNL     1      10.212   2.906  -9.239  0.00  0.00    +0.008 C 
ATOM      7  C   UNL     1      11.497   1.345  -9.680  0.00  0.00    +0.004 C 
ATOM      8  C   UNL     1       9.590   3.657  -9.019  0.00  0.00    +0.034 C 
ATOM      9  C   UNL     1       9.481   4.419  -9.657  0.00  0.00    +0.005 C 
ATOM     10  C   UNL     1      10.315   2.119  -8.564  0.00  0.00    +0.005 C 
ATOM     11  C   UNL     1      10.962   1.333  -8.786  0.00  0.00    +0.010 C 
ATOM     12  C   UNL     1      12.178   0.687 -10.097  0.00  0.00    +0.027 C 
ATOM     13  C   UNL     1      10.616   3.679 -10.735  0.00  0.00    +0.007 C 
ATOM     14  C   UNL     1      11.987   1.969 -11.159  0.00  0.00    +0.036 C 
ATOM     15  C   UNL     1       9.994   4.430 -10.515  0.00  0.00    +0.005 C 
ATOM     16  C   UNL     1      12.481   1.072 -11.009  0.00  0.00    +0.011 C 
ATOM     17  C   UNL     1       9.062   3.632  -8.122  0.00  0.00    +0.049 C 
ATOM     18  C   UNL     1       8.836   5.209  -9.442  0.00  0.00    +0.038 C 
ATOM     19  C   UNL     1      11.610   0.579  -9.046  0.00  0.00    +0.014 C 
ATOM     20  C   UNL     1       8.411   4.410  -7.886  0.00  0.00    +0.152 C 
ATOM     21  C   UNL     1       8.297   5.204  -8.550  0.00  0.00    +0.151 C 
ATOM     22  C   UNL     1       7.184   5.195  -6.705  0.00  0.00    +0.247 C 
ATOM     23  C   UNL     1       7.066   6.023  -7.398  0.00  0.00    +0.314 C 
ATOM     24  C   UNL     1       6.611   5.168  -5.731  0.00  0.00    +0.181 C 
ATOM     25  C   UNL     1       5.905   6.013  -5.475  0.00  0.00    +0.068 C 
ATOM     26  C   UNL     1       5.782   6.874  -6.197  0.00  0.00    +0.121 C 
ATOM     27  C   UNL     1       5.161   7.627  -5.980  0.00  0.00    +0.038 C 
ENDROOT
BRANCH  12  30
ATOM     28  O   UNL     1      12.576  -1.728  -9.257  0.00  0.00    -0.457 OA
ATOM     29  O   UNL     1      14.086  -1.673  -8.313  0.00  0.00    -0.246 OA
ATOM     30  C   UNL     1      12.490  -0.172  -9.690  0.00  0.00    -0.022 C 
ATOM     31  C   UNL     1      12.034  -1.058  -9.764  0.00  0.00    +0.264 C 
ATOM     32  C   UNL     1      13.315  -0.294  -9.137  0.00  0.00    +0.094 C 
ATOM     33  C   UNL     1      13.368  -1.256  -8.870  0.00  0.00    +0.332 C 
ENDBRANCH  12  30
BRANCH   4  34
ATOM     34  O   UNL     1      11.263   2.907 -10.973  0.00  0.00    -0.388 OA
ATOM     35  H   UNL     1      10.949   2.828 -11.502  0.00  0.00    +0.210 HD
ENDBRANCH   4  34
BRANCH   8  37
ATOM     36  O   UNL     1       9.834   3.387  -7.326  0.00  0.00    -0.300 OA
ATOM     37  C   UNL     1       9.467   3.088  -8.207  0.00  0.00    +0.230 C 
ENDBRANCH   8  37
BRANCH  22  38
ATOM     38  O   UNL     1       7.293   4.433  -6.067  0.00  0.00    -0.359 OA
ATOM     39  H   UNL     1       6.801   4.211  -5.762  0.00  0.00    +0.213 HD
ENDBRANCH  22  38
BRANCH  24  40
ATOM     40  O   UNL     1       6.728   4.401  -5.100  0.00  0.00    -0.386 OA
ATOM     41  H   UNL     1       6.510   3.840  -5.250  0.00  0.00    +0.210 HD
ENDBRANCH  24  40
TORSDOF 5
ENDMDL
MODEL 8
REMARK VINA RESULT:      -5.8      7.206      9.760
REMARK  Name = 16142
REMARK  7 active torsions:
REMARK  status: ('A' for Active; 'I' for Inactive)
REMARK    1  A    between atoms: O_1  and  C_10
REMARK    2  A    between atoms: O_7  and  C_30
REMARK    3  A    between atoms: O_8  and  C_34
REMARK    4  A    between atoms: C_13  and  C_25
REMARK    5  A    between atoms: C_14  and  C_28
REMARK    6  A    between atoms: C_18  and  C_29
REMARK    7  A    between atoms: C_37  and  C_38
REMARK                            x       y       z     vdW  Elec       q    Type
REMARK                         _______ _______ _______ _____ _____    ______ ____
ROOT
ATOM      1  O   UNL     1       8.557   4.925  -8.072  0.00  0.00    -0.337 OA
ATOM      2  O   UNL     1       8.139   5.197 -10.169  0.00  0.00    -0.341 OA
ATOM      3  O   UNL     1       9.711   4.218 -10.655  0.00  0.00    -0.343 OA
ATOM      4  C   UNL     1       4.106   7.699  -6.899  0.00  0.00    +0.075 C 
ATOM      5  C   UNL     1       4.760   7.295  -7.602  0.00  0.00    +0.025 C 
ATOM      6  C   UNL     1       5.572   6.786  -7.316  0.00  0.00    +0.008 C 
ATOM      7  C   UNL     1       4.301   7.572  -5.884  0.00  0.00    +0.004 C 
ATOM      8  C   UNL     1       6.190   6.403  -8.002  0.00  0.00    +0.034 C 
ATOM      9  C   UNL     1       5.996   6.530  -8.975  0.00  0.00    +0.005 C 
ATOM     10  C   UNL     1       5.787   6.646  -6.306  0.00  0.00    +0.005 C 
ATOM     11  C   UNL     1       5.147   7.042  -5.585  0.00  0.00    +0.010 C 
ATOM     12  C   UNL     1       3.546   8.041  -5.354  0.00  0.00    +0.027 C 
ATOM     13  C   UNL     1       4.566   7.421  -8.575  0.00  0.00    +0.007 C 
ATOM     14  C   UNL     1       3.231   8.246  -6.988  0.00  0.00    +0.036 C 
ATOM     15  C   UNL     1       5.184   7.039  -9.262  0.00  0.00    +0.005 C 
ATOM     16  C   UNL     1       2.886   8.457  -6.035  0.00  0.00    +0.011 C 
ATOM     17  C   UNL     1       7.031   5.876  -7.689  0.00  0.00    +0.049 C 
ATOM     18  C   UNL     1       6.631   6.137  -9.702  0.00  0.00    +0.038 C 
ATOM     19  C   UNL     1       4.489   7.449  -4.909  0.00  0.00    +0.014 C 
ATOM     20  C   UNL     1       7.680   5.475  -8.398  0.00  0.00    +0.152 C 
ATOM     21  C   UNL     1       7.479   5.606  -9.412  0.00  0.00    +0.151 C 
ATOM     22  C   UNL     1       9.233   4.507  -8.811  0.00  0.00    +0.247 C 
ATOM     23  C   UNL     1       9.022   4.644  -9.867  0.00  0.00    +0.314 C 
ATOM     24  C   UNL     1      10.146   3.934  -8.471  0.00  0.00    +0.181 C 
ATOM     25  C   UNL     1      10.850   3.499  -9.240  0.00  0.00    +0.068 C 
ATOM     26  C   UNL     1      10.630   3.642 -10.340  0.00  0.00    +0.121 C 
ATOM     27  C   UNL     1      11.246   3.260 -11.030  0.00  0.00    +0.038 C 
ENDROOT
BRANCH  12  30
ATOM     28  O   UNL     1       3.634   8.559  -2.821  0.00  0.00    -0.457 OA
ATOM     29  O   UNL     1       2.647   7.302  -2.032  0.00  0.00    -0.246 OA
ATOM     30  C   UNL     1       3.467   8.085  -4.358  0.00  0.00    -0.022 C 
ATOM     31  C   UNL     1       3.890   8.769  -3.764  0.00  0.00    +0.264 C 
ATOM     32  C   UNL     1       2.950   7.452  -3.782  0.00  0.00    +0.094 C 
ATOM     33  C   UNL     1       3.053   7.745  -2.831  0.00  0.00    +0.332 C 
ENDBRANCH  12  30
BRANCH   4  34
ATOM     34  O   UNL     1       3.919   7.821  -7.873  0.00  0.00    -0.388 OA
ATOM     35  H   UNL     1       4.294   7.565  -8.296  0.00  0.00    +0.210 HD
ENDBRANCH   4  34
BRANCH   8  37
ATOM     36  O   UNL     1       7.526   6.523  -6.907  0.00  0.00    -0.300 OA
ATOM     37  C   UNL     1       6.654   6.109  -7.168  0.00  0.00    +0.230 C 
ENDBRANCH   8  37
BRANCH  22  38
ATOM     38  O   UNL     1       9.426   4.381  -7.838  0.00  0.00    -0.359 OA
ATOM     39  H   UNL     1       9.316   3.833  -7.568  0.00  0.00    +0.213 HD
ENDBRANCH  22  38
BRANCH  24  40
ATOM     40  O   UNL     1      10.330   3.814  -7.495  0.00  0.00    -0.386 OA
ATOM     41  H   UNL     1      10.593   4.272  -7.171  0.00  0.00    +0.210 HD
ENDBRANCH  24  40
TORSDOF 5
ENDMDL
MODEL 9
REMARK VINA RESULT:      -5.8      6.767     11.418
REMARK  Name = 16142
REMARK  7 active torsions:
REMARK  status: ('A' for Active; 'I' for Inactive)
REMARK    1  A    between atoms: O_1  and  C_10
REMARK    2  A    between atoms: O_7  and  C_30
REMARK    3  A    between atoms: O_8  and  C_34
REMARK    4  A    between atoms: C_13  and  C_25
REMARK    5  A    between atoms: C_14  and  C_28
REMARK    6  A    between atoms: C_18  and  C_29
REMARK    7  A    between atoms: C_37  and  C_38
REMARK                            x       y       z     vdW  Elec       q    Type
REMARK                         _______ _______ _______ _____ _____    ______ ____
ROOT
ATOM      1  O   UNL     1       5.649   6.743  -5.552  0.00  0.00    -0.337 OA
ATOM      2  O   UNL     1       3.964   7.689  -6.505  0.00  0.00    -0.341 OA
ATOM      3  O   UNL     1       3.188   8.118  -4.808  0.00  0.00    -0.343 OA
ATOM      4  C   UNL     1       7.673   5.624 -10.404  0.00  0.00    +0.075 C 
ATOM      5  C   UNL     1       6.924   6.041  -9.811  0.00  0.00    +0.025 C 
ATOM      6  C   UNL     1       6.980   6.007  -8.813  0.00  0.00    +0.008 C 
ATOM      7  C   UNL     1       8.490   5.165  -9.950  0.00  0.00    +0.004 C 
ATOM      8  C   UNL     1       6.254   6.412  -8.257  0.00  0.00    +0.034 C 
ATOM      9  C   UNL     1       5.472   6.851  -8.699  0.00  0.00    +0.005 C 
ATOM     10  C   UNL     1       7.789   5.553  -8.338  0.00  0.00    +0.005 C 
ATOM     11  C   UNL     1       8.549   5.129  -8.911  0.00  0.00    +0.010 C 
ATOM     12  C   UNL     1       9.115   4.818 -10.699  0.00  0.00    +0.027 C 
ATOM     13  C   UNL     1       6.142   6.481 -10.253  0.00  0.00    +0.007 C 
ATOM     14  C   UNL     1       7.799   5.557 -11.429  0.00  0.00    +0.036 C 
ATOM     15  C   UNL     1       5.416   6.885  -9.697  0.00  0.00    +0.005 C 
ATOM     16  C   UNL     1       8.688   5.059 -11.612  0.00  0.00    +0.011 C 
ATOM     17  C   UNL     1       6.327   6.368  -7.220  0.00  0.00    +0.049 C 
ATOM     18  C   UNL     1       4.708   7.277  -8.134  0.00  0.00    +0.038 C 
ATOM     19  C   UNL     1       9.276   4.724  -9.515  0.00  0.00    +0.014 C 
ATOM     20  C   UNL     1       5.574   6.788  -6.634  0.00  0.00    +0.152 C 
ATOM     21  C   UNL     1       4.760   7.245  -7.093  0.00  0.00    +0.151 C 
ATOM     22  C   UNL     1       4.866   7.180  -4.942  0.00  0.00    +0.247 C 
ATOM     23  C   UNL     1       4.017   7.656  -5.422  0.00  0.00    +0.314 C 
ATOM     24  C   UNL     1       4.944   7.132  -3.816  0.00  0.00    +0.181 C 
ATOM     25  C   UNL     1       4.128   7.587  -3.180  0.00  0.00    +0.068 C 
ATOM     26  C   UNL     1       3.244   8.084  -3.680  0.00  0.00    +0.121 C 
ATOM     27  C   UNL     1       2.516   8.490  -3.127  0.00  0.00    +0.038 C 
ENDROOT
BRANCH  12  30
ATOM     28  O   UNL     1      11.547   4.024 -10.316  0.00  0.00    -0.457 OA
ATOM     29  O   UNL     1      11.490   2.243 -10.351  0.00  0.00    -0.246 OA
ATOM     30  C   UNL     1       9.979   4.333 -10.566  0.00  0.00    -0.022 C 
ATOM     31  C   UNL     1      10.873   4.755 -10.414  0.00  0.00    +0.264 C 
ATOM     32  C   UNL     1      10.101   3.341 -10.561  0.00  0.00    +0.094 C 
ATOM     33  C   UNL     1      11.071   3.150 -10.406  0.00  0.00    +0.332 C 
ENDBRANCH  12  30
BRANCH   4  34
ATOM     34  O   UNL     1       6.887   6.065 -10.838  0.00  0.00    -0.388 OA
ATOM     35  H   UNL     1       6.387   5.731 -10.986  0.00  0.00    +0.210 HD
ENDBRANCH   4  34
BRANCH   8  37
ATOM     36  O   UNL     1       7.363   6.717  -6.962  0.00  0.00    -0.300 OA
ATOM     37  C   UNL     1       6.856   6.073  -7.535  0.00  0.00    +0.230 C 
ENDBRANCH   8  37
BRANCH  22  38
ATOM     38  O   UNL     1       5.648   6.740  -4.500  0.00  0.00    -0.359 OA
ATOM     39  H   UNL     1       6.192   6.705  -4.796  0.00  0.00    +0.213 HD
ENDBRANCH  22  38
BRANCH  24  40
ATOM     40  O   UNL     1       5.731   6.691  -3.384  0.00  0.00    -0.386 OA
ATOM     41  H   UNL     1       5.662   6.396  -2.843  0.00  0.00    +0.210 HD
ENDBRANCH  24  40
TORSDOF 5
ENDMDL
