MODEL 1
REMARK VINA RESULT:      -4.5      0.000      0.000
REMARK  Name = 2244
REMARK  5 active torsions:
REMARK  status: ('A' for Active; 'I' for Inactive)
REMARK    1  A    between atoms: O_1  and  C_5
REMARK    2  A    between atoms: O_1  and  C_12
REMARK    3  A    between atoms: O_2  and  C_11
REMARK    4  A    between atoms: C_6  and  C_11
REMARK    5  A    between atoms: C_12  and  C_13
REMARK                            x       y       z     vdW  Elec       q    Type
REMARK                         _______ _______ _______ _____ _____    ______ ____
ROOT
ATOM      1  C   UNL     1       9.325   5.388  -9.936  0.00  0.00    +0.146 A 
ATOM      2  C   UNL     1       8.582   6.043 -10.075  0.00  0.00    +0.101 A 
ATOM      3  C   UNL     1       9.271   4.722  -9.192  0.00  0.00    +0.047 A 
ATOM      4  C   UNL     1       7.785   6.032  -9.471  0.00  0.00    +0.018 A 
ATOM      5  C   UNL     1       8.474   4.711  -8.587  0.00  0.00    +0.004 A 
ATOM      6  C   UNL     1       7.732   5.366  -8.727  0.00  0.00    +0.001 A 
ENDROOT
BRANCH   2   8
ATOM      7  O   UNL     1       8.282   6.477 -11.725  0.00  0.00    -0.245 OA
ATOM      8  C   UNL     1       8.636   6.709 -10.819  0.00  0.00    +0.340 C 
BRANCH   8   9
ATOM      9  O   UNL     1       9.044   7.608 -10.657  0.00  0.00    -0.477 OA
ATOM     10  H   UNL     1       9.632   7.715 -10.819  0.00  0.00    +0.295 HD
ENDBRANCH   8   9
ENDBRANCH   2   8
BRANCH   1  11
ATOM     11  O   UNL     1      10.121   5.399 -10.540  0.00  0.00    -0.425 OA
BRANCH  11  13
ATOM     12  O   UNL     1      11.622   5.046  -9.752  0.00  0.00    -0.251 OA
ATOM     13  C   UNL     1      10.885   4.777 -10.372  0.00  0.00    +0.309 C 
ATOM     14  C   UNL     1      10.912   3.885 -10.823  0.00  0.00    +0.136 C 
ENDBRANCH  11  13
ENDBRANCH   1  11
TORSDOF 4
ENDMDL
MODEL 2
REMARK VINA RESULT:      -4.2      0.913      2.749
REMARK  Name = 2244
REMARK  5 active torsions:
REMARK  status: ('A' for Active; 'I' for Inactive)
REMARK    1  A    between atoms: O_1  and  C_5
REMARK    2  A    between atoms: O_1  and  C_12
REMARK    3  A    between atoms: O_2  and  C_11
REMARK    4  A    between atoms: C_6  and  C_11
REMARK    5  A    between atoms: C_12  and  C_13
REMARK                            x       y       z     vdW  Elec       q    Type
REMARK                         _______ _______ _______ _____ _____    ______ ____
ROOT
ATOM      1  C   UNL     1       9.548   4.972  -9.791  0.00  0.00    +0.146 A 
ATOM      2  C   UNL     1      10.335   4.464  -9.442  0.00  0.00    +0.101 A 
ATOM      3  C   UNL     1       8.699   5.004  -9.262  0.00  0.00    +0.047 A 
ATOM      4  C   UNL     1      10.274   3.988  -8.564  0.00  0.00    +0.018 A 
ATOM      5  C   UNL     1       8.639   4.529  -8.384  0.00  0.00    +0.004 A 
ATOM      6  C   UNL     1       9.426   4.021  -8.035  0.00  0.00    +0.001 A 
ENDROOT
BRANCH   2   8
ATOM      7  O   UNL     1      11.306   3.732 -10.676  0.00  0.00    -0.245 OA
ATOM      8  C   UNL     1      11.183   4.431  -9.971  0.00  0.00    +0.340 C 
BRANCH   8   9
ATOM      9  O   UNL     1      11.908   5.096  -9.794  0.00  0.00    -0.477 OA
ATOM     10  H   UNL     1      12.498   4.909  -9.753  0.00  0.00    +0.295 HD
ENDBRANCH   8   9
ENDBRANCH   2   8
BRANCH   1  11
ATOM     11  O   UNL     1       9.608   5.447 -10.669  0.00  0.00    -0.425 OA
BRANCH  11  13
ATOM     12  O   UNL     1       9.152   7.116 -10.584  0.00  0.00    -0.251 OA
ATOM     13  C   UNL     1       8.965   6.181 -10.885  0.00  0.00    +0.309 C 
ATOM     14  C   UNL     1       8.133   5.980 -11.403  0.00  0.00    +0.136 C 
ENDBRANCH  11  13
ENDBRANCH   1  11
TORSDOF 4
ENDMDL
MODEL 3
REMARK VINA RESULT:      -3.8      1.602      2.412
REMARK  Name = 2244
REMARK  5 active torsions:
REMARK  status: ('A' for Active; 'I' for Inactive)
REMARK    1  A    between atoms: O_1  and  C_5
REMARK    2  A    between atoms: O_1  and  C_12
REMARK    3  A    between atoms: O_2  and  C_11
REMARK    4  A    between atoms: C_6  and  C_11
REMARK    5  A    between atoms: C_12  and  C_13
REMARK                            x       y       z     vdW  Elec       q    Type
REMARK                         _______ _______ _______ _____ _____    ______ ____
ROOT
ATOM      1  C   UNL     1       9.407   4.872  -9.391  0.00  0.00    +0.146 A 
ATOM      2  C   UNL     1       8.653   4.870  -8.734  0.00  0.00    +0.101 A 
ATOM      3  C   UNL     1       9.347   5.428 -10.219  0.00  0.00    +0.047 A 
ATOM      4  C   UNL     1       7.839   5.425  -8.905  0.00  0.00    +0.018 A 
ATOM      5  C   UNL     1       8.533   5.984 -10.390  0.00  0.00    +0.004 A 
ATOM      6  C   UNL     1       7.779   5.982  -9.733  0.00  0.00    +0.001 A 
ENDROOT
BRANCH   2   8
ATOM      7  O   UNL     1       8.393   3.366  -7.915  0.00  0.00    -0.245 OA
ATOM      8  C   UNL     1       8.713   4.313  -7.905  0.00  0.00    +0.340 C 
BRANCH   8   9
ATOM      9  O   UNL     1       9.094   4.704  -7.067  0.00  0.00    -0.477 OA
ATOM     10  H   UNL     1       8.732   5.034  -6.687  0.00  0.00    +0.295 HD
ENDBRANCH   8   9
ENDBRANCH   2   8
BRANCH   1  11
ATOM     11  O   UNL     1      10.221   4.316  -9.219  0.00  0.00    -0.425 OA
BRANCH  11  13
ATOM     12  O   UNL     1      11.657   5.091  -9.802  0.00  0.00    -0.251 OA
ATOM     13  C   UNL     1      10.990   4.347  -9.857  0.00  0.00    +0.309 C 
ATOM     14  C   UNL     1      11.094   3.634 -10.550  0.00  0.00    +0.136 C 
ENDBRANCH  11  13
ENDBRANCH   1  11
TORSDOF 4
ENDMDL
MODEL 4
REMARK VINA RESULT:      -3.8      1.350      2.619
REMARK  Name = 2244
REMARK  5 active torsions:
REMARK  status: ('A' for Active; 'I' for Inactive)
REMARK    1  A    between atoms: O_1  and  C_5
REMARK    2  A    between atoms: O_1  and  C_12
REMARK    3  A    between atoms: O_2  and  C_11
REMARK    4  A    between atoms: C_6  and  C_11
REMARK    5  A    between atoms: C_12  and  C_13
REMARK                            x       y       z     vdW  Elec       q    Type
REMARK                         _______ _______ _______ _____ _____    ______ ____
ROOT
ATOM      1  C   UNL     1       8.960   5.542  -9.770  0.00  0.00    +0.146 A 
ATOM      2  C   UNL     1       9.222   6.017 -10.610  0.00  0.00    +0.101 A 
ATOM      3  C   UNL     1       9.468   4.734  -9.473  0.00  0.00    +0.047 A 
ATOM      4  C   UNL     1       9.992   5.683 -11.154  0.00  0.00    +0.018 A 
ATOM      5  C   UNL     1      10.238   4.400 -10.017  0.00  0.00    +0.004 A 
ATOM      6  C   UNL     1      10.501   4.875 -10.857  0.00  0.00    +0.001 A 
ENDROOT
BRANCH   2   8
ATOM      7  O   UNL     1       7.899   6.723 -11.477  0.00  0.00    -0.245 OA
ATOM      8  C   UNL     1       8.714   6.826 -10.907  0.00  0.00    +0.340 C 
BRANCH   8   9
ATOM      9  O   UNL     1       9.021   7.737 -10.634  0.00  0.00    -0.477 OA
ATOM     10  H   UNL     1       8.698   8.060 -10.214  0.00  0.00    +0.295 HD
ENDBRANCH   8   9
ENDBRANCH   2   8
BRANCH   1  11
ATOM     11  O   UNL     1       8.190   5.876  -9.227  0.00  0.00    -0.425 OA
BRANCH  11  13
ATOM     12  O   UNL     1       7.067   4.576  -9.008  0.00  0.00    -0.251 OA
ATOM     13  C   UNL     1       7.696   5.251  -8.622  0.00  0.00    +0.309 C 
ATOM     14  C   UNL     1       7.832   5.300  -7.633  0.00  0.00    +0.136 C 
ENDBRANCH  11  13
ENDBRANCH   1  11
TORSDOF 4
ENDMDL
MODEL 5
REMARK VINA RESULT:      -3.8      4.339      5.393
REMARK  Name = 2244
REMARK  5 active torsions:
REMARK  status: ('A' for Active; 'I' for Inactive)
REMARK    1  A    between atoms: O_1  and  C_5
REMARK    2  A    between atoms: O_1  and  C_12
REMARK    3  A    between atoms: O_2  and  C_11
REMARK    4  A    between atoms: C_6  and  C_11
REMARK    5  A    between atoms: C_12  and  C_13
REMARK                            x       y       z     vdW  Elec       q    Type
REMARK                         _______ _______ _______ _____ _____    ______ ____
ROOT
ATOM      1  C   UNL     1       7.091   5.756  -5.523  0.00  0.00    +0.146 A 
ATOM      2  C   UNL     1       7.241   6.348  -4.732  0.00  0.00    +0.101 A 
ATOM      3  C   UNL     1       6.180   5.385  -5.704  0.00  0.00    +0.047 A 
ATOM      4  C   UNL     1       6.481   6.569  -4.121  0.00  0.00    +0.018 A 
ATOM      5  C   UNL     1       5.420   5.605  -5.094  0.00  0.00    +0.004 A 
ATOM      6  C   UNL     1       5.570   6.197  -4.302  0.00  0.00    +0.001 A 
ENDROOT
BRANCH   2   8
ATOM      7  O   UNL     1       8.788   6.220  -3.963  0.00  0.00    -0.245 OA
ATOM      8  C   UNL     1       8.152   6.720  -4.551  0.00  0.00    +0.340 C 
BRANCH   8   9
ATOM      9  O   UNL     1       8.426   7.591  -4.957  0.00  0.00    -0.477 OA
ATOM     10  H   UNL     1       8.911   7.614  -5.343  0.00  0.00    +0.295 HD
ENDBRANCH   8   9
ENDBRANCH   2   8
BRANCH   1  11
ATOM     11  O   UNL     1       7.851   5.536  -6.134  0.00  0.00    -0.425 OA
BRANCH  11  13
ATOM     12  O   UNL     1       7.464   6.201  -7.686  0.00  0.00    -0.251 OA
ATOM     13  C   UNL     1       7.687   5.413  -7.113  0.00  0.00    +0.309 C 
ATOM     14  C   UNL     1       7.746   4.501  -7.519  0.00  0.00    +0.136 C 
ENDBRANCH  11  13
ENDBRANCH   1  11
TORSDOF 4
ENDMDL
MODEL 6
REMARK VINA RESULT:      -3.8      6.363      7.516
REMARK  Name = 2244
REMARK  5 active torsions:
REMARK  status: ('A' for Active; 'I' for Inactive)
REMARK    1  A    between atoms: O_1  and  C_5
REMARK    2  A    between atoms: O_1  and  C_12
REMARK    3  A    between atoms: O_2  and  C_11
REMARK    4  A    between atoms: C_6  and  C_11
REMARK    5  A    between atoms: C_12  and  C_13
REMARK                            x       y       z     vdW  Elec       q    Type
REMARK                         _______ _______ _______ _____ _____    ______ ____
ROOT
ATOM      1  C   UNL     1       6.847   6.646  -3.321  0.00  0.00    +0.146 A 
ATOM      2  C   UNL     1       7.243   6.402  -4.207  0.00  0.00    +0.101 A 
ATOM      3  C   UNL     1       5.924   6.343  -3.085  0.00  0.00    +0.047 A 
ATOM      4  C   UNL     1       6.715   5.856  -4.857  0.00  0.00    +0.018 A 
ATOM      5  C   UNL     1       5.396   5.797  -3.736  0.00  0.00    +0.004 A 
ATOM      6  C   UNL     1       5.791   5.554  -4.621  0.00  0.00    +0.001 A 
ENDROOT
BRANCH   2   8
ATOM      7  O   UNL     1       8.958   6.167  -4.154  0.00  0.00    -0.245 OA
ATOM      8  C   UNL     1       8.166   6.705  -4.442  0.00  0.00    +0.340 C 
BRANCH   8   9
ATOM      9  O   UNL     1       8.298   7.547  -4.966  0.00  0.00    -0.477 OA
ATOM     10  H   UNL     1       8.744   7.946  -4.804  0.00  0.00    +0.295 HD
ENDBRANCH   8   9
ENDBRANCH   2   8
BRANCH   1  11
ATOM     11  O   UNL     1       7.376   7.191  -2.671  0.00  0.00    -0.425 OA
BRANCH  11  13
ATOM     12  O   UNL     1       7.394   6.344  -1.160  0.00  0.00    -0.251 OA
ATOM     13  C   UNL     1       7.159   7.155  -1.695  0.00  0.00    +0.309 C 
ATOM     14  C   UNL     1       6.706   7.931  -1.255  0.00  0.00    +0.136 C 
ENDBRANCH  11  13
ENDBRANCH   1  11
TORSDOF 4
ENDMDL
MODEL 7
REMARK VINA RESULT:      -3.6      1.824      2.853
REMARK  Name = 2244
REMARK  5 active torsions:
REMARK  status: ('A' for Active; 'I' for Inactive)
REMARK    1  A    between atoms: O_1  and  C_5
REMARK    2  A    between atoms: O_1  and  C_12
REMARK    3  A    between atoms: O_2  and  C_11
REMARK    4  A    between atoms: C_6  and  C_11
REMARK    5  A    between atoms: C_12  and  C_13
REMARK                            x       y       z     vdW  Elec       q    Type
REMARK                         _______ _______ _______ _____ _____    ______ ____
ROOT
ATOM      1  C   UNL     1       9.634   4.603  -9.324  0.00  0.00    +0.146 A 
ATOM      2  C   UNL     1      10.211   4.914 -10.079  0.00  0.00    +0.101 A 
ATOM      3  C   UNL     1       8.700   4.950  -9.233  0.00  0.00    +0.047 A 
ATOM      4  C   UNL     1       9.855   5.571 -10.743  0.00  0.00    +0.018 A 
ATOM      5  C   UNL     1       8.344   5.608  -9.897  0.00  0.00    +0.004 A 
ATOM      6  C   UNL     1       8.922   5.918 -10.652  0.00  0.00    +0.001 A 
ENDROOT
BRANCH   2   8
ATOM      7  O   UNL     1      11.330   3.780 -10.758  0.00  0.00    -0.245 OA
ATOM      8  C   UNL     1      11.144   4.567 -10.170  0.00  0.00    +0.340 C 
BRANCH   8   9
ATOM      9  O   UNL     1      11.892   5.006  -9.673  0.00  0.00    -0.477 OA
ATOM     10  H   UNL     1      12.451   5.060  -9.936  0.00  0.00    +0.295 HD
ENDBRANCH   8   9
ENDBRANCH   2   8
BRANCH   1  11
ATOM     11  O   UNL     1       9.990   3.946  -8.660  0.00  0.00    -0.425 OA
BRANCH  11  13
ATOM     12  O   UNL     1       9.205   4.147  -7.129  0.00  0.00    -0.251 OA
ATOM     13  C   UNL     1       9.395   3.592  -7.938  0.00  0.00    +0.309 C 
ATOM     14  C   UNL     1       8.989   2.682  -8.027  0.00  0.00    +0.136 C 
ENDBRANCH  11  13
ENDBRANCH   1  11
TORSDOF 4
ENDMDL
MODEL 8
REMARK VINA RESULT:      -3.5      3.843      5.071
REMARK  Name = 2244
REMARK  5 active torsions:
REMARK  status: ('A' for Active; 'I' for Inactive)
REMARK    1  A    between atoms: O_1  and  C_5
REMARK    2  A    between atoms: O_1  and  C_12
REMARK    3  A    between atoms: O_2  and  C_11
REMARK    4  A    between atoms: C_6  and  C_11
REMARK    5  A    between atoms: C_12  and  C_13
REMARK                            x       y       z     vdW  Elec       q    Type
REMARK                         _______ _______ _______ _____ _____    ______ ____
ROOT
ATOM      1  C   UNL     1       7.112   6.158  -6.074  0.00  0.00    +0.146 A 
ATOM      2  C   UNL     1       7.153   5.688  -6.956  0.00  0.00    +0.101 A 
ATOM      3  C   UNL     1       6.393   6.830  -5.899  0.00  0.00    +0.047 A 
ATOM      4  C   UNL     1       6.476   5.891  -7.663  0.00  0.00    +0.018 A 
ATOM      5  C   UNL     1       5.715   7.033  -6.606  0.00  0.00    +0.004 A 
ATOM      6  C   UNL     1       5.757   6.564  -7.488  0.00  0.00    +0.001 A 
ENDROOT
BRANCH   2   8
ATOM      7  O   UNL     1       7.763   4.073  -6.814  0.00  0.00    -0.245 OA
ATOM      8  C   UNL     1       7.872   5.015  -7.130  0.00  0.00    +0.340 C 
BRANCH   8   9
ATOM      9  O   UNL     1       8.701   5.285  -7.621  0.00  0.00    -0.477 OA
ATOM     10  H   UNL     1       8.728   5.837  -7.903  0.00  0.00    +0.295 HD
ENDBRANCH   8   9
ENDBRANCH   2   8
BRANCH   1  11
ATOM     11  O   UNL     1       7.789   5.954  -5.367  0.00  0.00    -0.425 OA
BRANCH  11  13
ATOM     12  O   UNL     1       8.420   7.428  -4.710  0.00  0.00    -0.251 OA
ATOM     13  C   UNL     1       7.907   6.578  -4.593  0.00  0.00    +0.309 C 
ATOM     14  C   UNL     1       7.511   6.350  -3.703  0.00  0.00    +0.136 C 
ENDBRANCH  11  13
ENDBRANCH   1  11
TORSDOF 4
ENDMDL
MODEL 9
REMARK VINA RESULT:      -3.5      1.874      2.976
REMARK  Name = 2244
REMARK  5 active torsions:
REMARK  status: ('A' for Active; 'I' for Inactive)
REMARK    1  A    between atoms: O_1  and  C_5
REMARK    2  A    between atoms: O_1  and  C_12
REMARK    3  A    between atoms: O_2  and  C_11
REMARK    4  A    between atoms: C_6  and  C_11
REMARK    5  A    between atoms: C_12  and  C_13
REMARK                            x       y       z     vdW  Elec       q    Type
REMARK                         _______ _______ _______ _____ _____    ______ ____
ROOT
ATOM      1  C   UNL     1       9.005   5.142  -9.215  0.00  0.00    +0.146 A 
ATOM      2  C   UNL     1       8.844   4.679  -8.343  0.00  0.00    +0.101 A 
ATOM      3  C   UNL     1       9.794   4.892  -9.776  0.00  0.00    +0.047 A 
ATOM      4  C   UNL     1       9.473   3.967  -8.032  0.00  0.00    +0.018 A 
ATOM      5  C   UNL     1      10.422   4.179  -9.465  0.00  0.00    +0.004 A 
ATOM      6  C   UNL     1      10.262   3.717  -8.593  0.00  0.00    +0.001 A 
ENDROOT
BRANCH   2   8
ATOM      7  O   UNL     1       7.181   4.462  -7.912  0.00  0.00    -0.245 OA
ATOM      8  C   UNL     1       8.055   4.930  -7.782  0.00  0.00    +0.340 C 
BRANCH   8   9
ATOM      9  O   UNL     1       8.140   5.647  -7.091  0.00  0.00    -0.477 OA
ATOM     10  H   UNL     1       8.192   5.496  -6.492  0.00  0.00    +0.295 HD
ENDBRANCH   8   9
ENDBRANCH   2   8
BRANCH   1  11
ATOM     11  O   UNL     1       8.376   5.855  -9.526  0.00  0.00    -0.425 OA
BRANCH  11  13
ATOM     12  O   UNL     1       9.151   7.043 -10.520  0.00  0.00    -0.251 OA
ATOM     13  C   UNL     1       8.509   6.283 -10.420  0.00  0.00    +0.309 C 
ATOM     14  C   UNL     1       7.999   5.952 -11.214  0.00  0.00    +0.136 C 
ENDBRANCH  11  13
ENDBRANCH   1  11
TORSDOF 4
ENDMDL
