MODEL 1
REMARK VINA RESULT:      -4.5      0.000      0.000
REMARK  Name = 7991
REMARK  5 active torsions:
REMARK  status: ('A' for Active; 'I' for Inactive)
REMARK    1  A    between atoms: O_1  and  C_7
REMARK    2  A    between atoms: C_3  and  C_4
REMARK    3  A    between atoms: C_3  and  C_5
REMARK    4  A    between atoms: C_4  and  C_6
REMARK    5  A    between atoms: C_5  and  C_7
REMARK                            x       y       z     vdW  Elec       q    Type
REMARK                         _______ _______ _______ _____ _____    ______ ____
ROOT
ATOM      1  C   UNL     1      -6.153   7.280  -1.622  0.00  0.00    +0.120 C 
ENDROOT
BRANCH   1   3
ATOM      2  O   UNL     1      -7.052   7.455  -3.092  0.00  0.00    -0.251 OA
ATOM      3  C   UNL     1      -6.973   7.587  -2.104  0.00  0.00    +0.305 C 
BRANCH   3   4
ATOM      4  O   UNL     1      -7.716   8.026  -1.598  0.00  0.00    -0.481 OA
ATOM      5  H   UNL     1      -7.737   7.984  -0.980  0.00  0.00    +0.295 HD
ENDBRANCH   3   4
ENDBRANCH   1   3
BRANCH   1   6
ATOM      6  C   UNL     1      -6.122   6.366  -1.219  0.00  0.00    +0.011 C 
BRANCH   6   7
ATOM      7  C   UNL     1      -5.285   6.042  -0.778  0.00  0.00    -0.003 C 
ATOM      8  C   UNL     1      -5.340   5.436   0.016  0.00  0.00    +0.004 C 
ENDBRANCH   6   7
ENDBRANCH   1   6
TORSDOF 4
ENDMDL
MODEL 2
REMARK VINA RESULT:      -4.5      3.098      3.681
REMARK  Name = 7991
REMARK  5 active torsions:
REMARK  status: ('A' for Active; 'I' for Inactive)
REMARK    1  A    between atoms: O_1  and  C_7
REMARK    2  A    between atoms: C_3  and  C_4
REMARK    3  A    between atoms: C_3  and  C_5
REMARK    4  A    between atoms: C_4  and  C_6
REMARK    5  A    between atoms: C_5  and  C_7
REMARK                            x       y       z     vdW  Elec       q    Type
REMARK                         _______ _______ _______ _____ _____    ______ ____
ROOT
ATOM      1  C   UNL     1      -3.780   5.888  -2.010  0.00  0.00    +0.120 C 
ENDROOT
BRANCH   1   3
ATOM      2  O   UNL     1      -2.475   4.751  -1.974  0.00  0.00    -0.251 OA
ATOM      3  C   UNL     1      -3.041   5.404  -2.477  0.00  0.00    +0.305 C 
BRANCH   3   4
ATOM      4  O   UNL     1      -2.867   5.572  -3.447  0.00  0.00    -0.481 OA
ATOM      5  H   UNL     1      -2.929   6.144  -3.678  0.00  0.00    +0.295 HD
ENDBRANCH   3   4
ENDBRANCH   1   3
BRANCH   1   6
ATOM      6  C   UNL     1      -4.292   5.435  -1.280  0.00  0.00    +0.011 C 
BRANCH   6   7
ATOM      7  C   UNL     1      -5.096   5.878  -0.883  0.00  0.00    -0.003 C 
ATOM      8  C   UNL     1      -5.496   5.524  -0.038  0.00  0.00    +0.004 C 
ENDBRANCH   6   7
ENDBRANCH   1   6
TORSDOF 4
ENDMDL
MODEL 3
REMARK VINA RESULT:      -4.3      1.802      2.127
REMARK  Name = 7991
REMARK  5 active torsions:
REMARK  status: ('A' for Active; 'I' for Inactive)
REMARK    1  A    between atoms: O_1  and  C_7
REMARK    2  A    between atoms: C_3  and  C_4
REMARK    3  A    between atoms: C_3  and  C_5
REMARK    4  A    between atoms: C_4  and  C_6
REMARK    5  A    between atoms: C_5  and  C_7
REMARK                            x       y       z     vdW  Elec       q    Type
REMARK                         _______ _______ _______ _____ _____    ______ ____
ROOT
ATOM      1  C   UNL     1      -4.977   6.721  -1.860  0.00  0.00    +0.120 C 
ENDROOT
BRANCH   1   3
ATOM      2  O   UNL     1      -5.953   7.490  -0.654  0.00  0.00    -0.251 OA
ATOM      3  C   UNL     1      -5.871   6.879  -1.441  0.00  0.00    +0.305 C 
BRANCH   3   4
ATOM      4  O   UNL     1      -6.683   6.425  -1.809  0.00  0.00    -0.481 OA
ATOM      5  H   UNL     1      -7.248   6.630  -1.657  0.00  0.00    +0.295 HD
ENDBRANCH   3   4
ENDBRANCH   1   3
BRANCH   1   6
ATOM      6  C   UNL     1      -4.464   5.890  -1.644  0.00  0.00    +0.011 C 
BRANCH   6   7
ATOM      7  C   UNL     1      -3.563   5.738  -2.053  0.00  0.00    -0.003 C 
ATOM      8  C   UNL     1      -3.093   4.867  -1.916  0.00  0.00    +0.004 C 
ENDBRANCH   6   7
ENDBRANCH   1   6
TORSDOF 4
ENDMDL
MODEL 4
REMARK VINA RESULT:      -4.1      4.073      4.800
REMARK  Name = 7991
REMARK  5 active torsions:
REMARK  status: ('A' for Active; 'I' for Inactive)
REMARK    1  A    between atoms: O_1  and  C_7
REMARK    2  A    between atoms: C_3  and  C_4
REMARK    3  A    between atoms: C_3  and  C_5
REMARK    4  A    between atoms: C_4  and  C_6
REMARK    5  A    between atoms: C_5  and  C_7
REMARK                            x       y       z     vdW  Elec       q    Type
REMARK                         _______ _______ _______ _____ _____    ______ ____
ROOT
ATOM      1  C   UNL     1      -3.219   4.673  -1.544  0.00  0.00    +0.120 C 
ENDROOT
BRANCH   1   3
ATOM      2  O   UNL     1      -2.323   3.627  -2.594  0.00  0.00    -0.251 OA
ATOM      3  C   UNL     1      -2.465   4.033  -1.692  0.00  0.00    +0.305 C 
BRANCH   3   4
ATOM      4  O   UNL     1      -1.853   3.800  -0.936  0.00  0.00    -0.481 OA
ATOM      5  H   UNL     1      -1.662   3.215  -0.861  0.00  0.00    +0.295 HD
ENDBRANCH   3   4
ENDBRANCH   1   3
BRANCH   1   6
ATOM      6  C   UNL     1      -3.353   5.441  -2.171  0.00  0.00    +0.011 C 
BRANCH   6   7
ATOM      7  C   UNL     1      -4.027   6.149  -1.958  0.00  0.00    -0.003 C 
ATOM      8  C   UNL     1      -4.047   6.996  -2.490  0.00  0.00    +0.004 C 
ENDBRANCH   6   7
ENDBRANCH   1   6
TORSDOF 4
ENDMDL
MODEL 5
REMARK VINA RESULT:      -4.1     17.104     17.569
REMARK  Name = 7991
REMARK  5 active torsions:
REMARK  status: ('A' for Active; 'I' for Inactive)
REMARK    1  A    between atoms: O_1  and  C_7
REMARK    2  A    between atoms: C_3  and  C_4
REMARK    3  A    between atoms: C_3  and  C_5
REMARK    4  A    between atoms: C_4  and  C_6
REMARK    5  A    between atoms: C_5  and  C_7
REMARK                            x       y       z     vdW  Elec       q    Type
REMARK                         _______ _______ _______ _____ _____    ______ ____
ROOT
ATOM      1  C   UNL     1      -4.276 -10.235  -2.618  0.00  0.00    +0.120 C 
ENDROOT
BRANCH   1   3
ATOM      2  O   UNL     1      -5.177 -11.667  -2.244  0.00  0.00    -0.251 OA
ATOM      3  C   UNL     1      -5.147 -10.681  -2.412  0.00  0.00    +0.305 C 
BRANCH   3   4
ATOM      4  O   UNL     1      -5.988 -10.142  -2.373  0.00  0.00    -0.481 OA
ATOM      5  H   UNL     1      -6.534 -10.424  -2.288  0.00  0.00    +0.295 HD
ENDBRANCH   3   4
ENDBRANCH   1   3
BRANCH   1   6
ATOM      6  C   UNL     1      -3.956 -10.178  -3.564  0.00  0.00    +0.011 C 
BRANCH   6   7
ATOM      7  C   UNL     1      -3.102  -9.701  -3.774  0.00  0.00    -0.003 C 
ATOM      8  C   UNL     1      -2.634  -9.874  -4.641  0.00  0.00    +0.004 C 
ENDBRANCH   6   7
ENDBRANCH   1   6
TORSDOF 4
ENDMDL
MODEL 6
REMARK VINA RESULT:      -3.8     15.208     16.317
REMARK  Name = 7991
REMARK  5 active torsions:
REMARK  status: ('A' for Active; 'I' for Inactive)
REMARK    1  A    between atoms: O_1  and  C_7
REMARK    2  A    between atoms: C_3  and  C_4
REMARK    3  A    between atoms: C_3  and  C_5
REMARK    4  A    between atoms: C_4  and  C_6
REMARK    5  A    between atoms: C_5  and  C_7
REMARK                            x       y       z     vdW  Elec       q    Type
REMARK                         _______ _______ _______ _____ _____    ______ ____
ROOT
ATOM      1  C   UNL     1       1.290  -6.533   2.973  0.00  0.00    +0.120 C 
ENDROOT
BRANCH   1   3
ATOM      2  O   UNL     1       1.524  -4.826   3.157  0.00  0.00    -0.251 OA
ATOM      3  C   UNL     1       1.221  -5.605   2.607  0.00  0.00    +0.305 C 
BRANCH   3   4
ATOM      4  O   UNL     1       0.849  -5.455   1.691  0.00  0.00    -0.481 OA
ATOM      5  H   UNL     1       0.490  -5.886   1.428  0.00  0.00    +0.295 HD
ENDBRANCH   3   4
ENDBRANCH   1   3
BRANCH   1   6
ATOM      6  C   UNL     1       2.149  -6.848   3.376  0.00  0.00    +0.011 C 
BRANCH   6   7
ATOM      7  C   UNL     1       2.309  -7.827   3.508  0.00  0.00    -0.003 C 
ATOM      8  C   UNL     1       3.031  -8.136   4.127  0.00  0.00    +0.004 C 
ENDBRANCH   6   7
ENDBRANCH   1   6
TORSDOF 4
ENDMDL
MODEL 7
REMARK VINA RESULT:      -3.7      2.253      3.048
REMARK  Name = 7991
REMARK  5 active torsions:
REMARK  status: ('A' for Active; 'I' for Inactive)
REMARK    1  A    between atoms: O_1  and  C_7
REMARK    2  A    between atoms: C_3  and  C_4
REMARK    3  A    between atoms: C_3  and  C_5
REMARK    4  A    between atoms: C_4  and  C_6
REMARK    5  A    between atoms: C_5  and  C_7
REMARK                            x       y       z     vdW  Elec       q    Type
REMARK                         _______ _______ _______ _____ _____    ______ ____
ROOT
ATOM      1  C   UNL     1      -6.039   5.877  -1.054  0.00  0.00    +0.120 C 
ENDROOT
BRANCH   1   3
ATOM      2  O   UNL     1      -4.386   5.396  -0.860  0.00  0.00    -0.251 OA
ATOM      3  C   UNL     1      -5.324   5.431  -0.515  0.00  0.00    +0.305 C 
BRANCH   3   4
ATOM      4  O   UNL     1      -5.547   5.021   0.369  0.00  0.00    -0.481 OA
ATOM      5  H   UNL     1      -5.095   4.881   0.769  0.00  0.00    +0.295 HD
ENDBRANCH   3   4
ENDBRANCH   1   3
BRANCH   1   6
ATOM      6  C   UNL     1      -5.963   6.849  -1.278  0.00  0.00    +0.011 C 
BRANCH   6   7
ATOM      7  C   UNL     1      -6.729   7.323  -1.712  0.00  0.00    -0.003 C 
ATOM      8  C   UNL     1      -6.556   8.023  -2.405  0.00  0.00    +0.004 C 
ENDBRANCH   6   7
ENDBRANCH   1   6
TORSDOF 4
ENDMDL
MODEL 8
REMARK VINA RESULT:      -3.6     11.749     12.319
REMARK  Name = 7991
REMARK  5 active torsions:
REMARK  status: ('A' for Active; 'I' for Inactive)
REMARK    1  A    between atoms: O_1  and  C_7
REMARK    2  A    between atoms: C_3  and  C_4
REMARK    3  A    between atoms: C_3  and  C_5
REMARK    4  A    between atoms: C_4  and  C_6
REMARK    5  A    between atoms: C_5  and  C_7
REMARK                            x       y       z     vdW  Elec       q    Type
REMARK                         _______ _______ _______ _____ _____    ______ ____
ROOT
ATOM      1  C   UNL     1       5.319   7.475  -3.112  0.00  0.00    +0.120 C 
ENDROOT
BRANCH   1   3
ATOM      2  O   UNL     1       4.916   6.051  -2.212  0.00  0.00    -0.251 OA
ATOM      3  C   UNL     1       4.765   6.650  -2.999  0.00  0.00    +0.305 C 
BRANCH   3   4
ATOM      4  O   UNL     1       4.061   6.425  -3.671  0.00  0.00    -0.481 OA
ATOM      5  H   UNL     1       3.479   6.621  -3.588  0.00  0.00    +0.295 HD
ENDBRANCH   3   4
ENDBRANCH   1   3
BRANCH   1   6
ATOM      6  C   UNL     1       6.094   7.474  -3.745  0.00  0.00    +0.011 C 
BRANCH   6   7
ATOM      7  C   UNL     1       6.568   8.329  -3.956  0.00  0.00    -0.003 C 
ATOM      8  C   UNL     1       6.987   8.459  -4.854  0.00  0.00    +0.004 C 
ENDBRANCH   6   7
ENDBRANCH   1   6
TORSDOF 4
ENDMDL
MODEL 9
REMARK VINA RESULT:      -3.6      3.103      3.616
REMARK  Name = 7991
REMARK  5 active torsions:
REMARK  status: ('A' for Active; 'I' for Inactive)
REMARK    1  A    between atoms: O_1  and  C_7
REMARK    2  A    between atoms: C_3  and  C_4
REMARK    3  A    between atoms: C_3  and  C_5
REMARK    4  A    between atoms: C_4  and  C_6
REMARK    5  A    between atoms: C_5  and  C_7
REMARK                            x       y       z     vdW  Elec       q    Type
REMARK                         _______ _______ _______ _____ _____    ______ ____
ROOT
ATOM      1  C   UNL     1      -3.797   5.258  -2.267  0.00  0.00    +0.120 C 
ENDROOT
BRANCH   1   3
ATOM      2  O   UNL     1      -4.632   6.552  -1.475  0.00  0.00    -0.251 OA
ATOM      3  C   UNL     1      -3.990   6.234  -2.173  0.00  0.00    +0.305 C 
BRANCH   3   4
ATOM      4  O   UNL     1      -3.542   6.893  -2.777  0.00  0.00    -0.481 OA
ATOM      5  H   UNL     1      -3.538   7.496  -2.631  0.00  0.00    +0.295 HD
ENDBRANCH   3   4
ENDBRANCH   1   3
BRANCH   1   6
ATOM      6  C   UNL     1      -3.023   4.852  -1.781  0.00  0.00    +0.011 C 
BRANCH   6   7
ATOM      7  C   UNL     1      -2.773   3.898  -1.947  0.00  0.00    -0.003 C 
ATOM      8  C   UNL     1      -2.027   3.479  -1.429  0.00  0.00    +0.004 C 
ENDBRANCH   6   7
ENDBRANCH   1   6
TORSDOF 4
ENDMDL
