REMARK  Name = 156391
REMARK  6 active torsions:
REMARK  status: ('A' for Active; 'I' for Inactive)
REMARK    1  A    between atoms: O_1  and  C_14
REMARK    2  A    between atoms: O_1  and  C_17
REMARK    3  A    between atoms: O_2  and  C_15
REMARK    4  A    between atoms: C_4  and  C_5
REMARK    5  A    between atoms: C_4  and  C_11
REMARK    6  A    between atoms: C_4  and  C_15
REMARK                            x       y       z     vdW  Elec       q    Type
REMARK                         _______ _______ _______ _____ _____    ______ ____
ROOT
ATOM      1  C   UNL     1       5.135  -0.017   0.000  0.00  0.00    -0.033 A 
ATOM      2  C   UNL     1       6.867  -0.017   0.000  0.00  0.00    -0.017 A 
ATOM      3  C   UNL     1       6.867   0.983   0.000  0.00  0.00    -0.014 A 
ATOM      4  C   UNL     1       6.001  -0.517   0.000  0.00  0.00    +0.013 A 
ATOM      5  C   UNL     1       5.135   0.983   0.000  0.00  0.00    +0.005 A 
ATOM      6  C   UNL     1       6.001   1.483   0.000  0.00  0.00    +0.009 A 
ATOM      7  C   UNL     1       7.761  -0.552   0.000  0.00  0.00    +0.012 A 
ATOM      8  C   UNL     1       7.761   1.517   0.000  0.00  0.00    +0.054 A 
ATOM      9  C   UNL     1       8.667   1.004   0.000  0.00  0.00    +0.121 A 
ATOM     10  C   UNL     1       8.667  -0.038   0.000  0.00  0.00    +0.046 A 
ENDROOT
BRANCH   9  11
ATOM     11  O   UNL     1       9.531   1.507   0.000  0.00  0.00    -0.495 OA
ATOM     12  C   UNL     1      10.399   1.010   0.000  0.00  0.00    +0.277 C 
ENDBRANCH   9  11
BRANCH   1  13
ATOM     13  C   UNL     1       4.269  -0.517   0.000  0.00  0.00    +0.124 C 
ATOM     14  C   UNL     1       4.269  -1.517   0.000  0.00  0.00    +0.024 C 
BRANCH  13  16
ATOM     15  O   UNL     1       3.403   0.983   0.000  0.00  0.00    -0.250 OA
ATOM     16  C   UNL     1       3.403  -0.017   0.000  0.00  0.00    +0.312 C 
BRANCH  16  17
ATOM     17  O   UNL     1       2.537  -0.517   0.000  0.00  0.00    -0.480 OA
ATOM     18  H   UNL     1       2.000  -0.207   0.000  0.00  0.00    +0.295 HD
ENDBRANCH  16  17
ENDBRANCH  13  16
ENDBRANCH   1  13
TORSDOF 4
