MODEL 1
REMARK VINA RESULT:      -8.4      0.000      0.000
REMARK  Name = 16142
REMARK  7 active torsions:
REMARK  status: ('A' for Active; 'I' for Inactive)
REMARK    1  A    between atoms: O_1  and  C_10
REMARK    2  A    between atoms: O_7  and  C_30
REMARK    3  A    between atoms: O_8  and  C_34
REMARK    4  A    between atoms: C_13  and  C_25
REMARK    5  A    between atoms: C_14  and  C_28
REMARK    6  A    between atoms: C_18  and  C_29
REMARK    7  A    between atoms: C_37  and  C_38
REMARK                            x       y       z     vdW  Elec       q    Type
REMARK                         _______ _______ _______ _____ _____    ______ ____
ROOT
ATOM      1  O   UNL     1       2.170  -0.587  -5.003  0.00  0.00    -0.337 OA
ATOM      2  O   UNL     1       0.038  -0.367  -4.782  0.00  0.00    -0.341 OA
ATOM      3  O   UNL     1       0.036  -1.502  -3.240  0.00  0.00    -0.343 OA
ATOM      4  C   UNL     1       1.982   2.620  -9.312  0.00  0.00    +0.075 C 
ATOM      5  C   UNL     1       1.501   2.130  -8.529  0.00  0.00    +0.025 C 
ATOM      6  C   UNL     1       2.015   1.563  -7.885  0.00  0.00    +0.008 C 
ATOM      7  C   UNL     1       3.012   2.518  -9.425  0.00  0.00    +0.004 C 
ATOM      8  C   UNL     1       1.539   1.098  -7.138  0.00  0.00    +0.034 C 
ATOM      9  C   UNL     1       0.550   1.200  -7.035  0.00  0.00    +0.005 C 
ATOM     10  C   UNL     1       3.046   1.447  -7.979  0.00  0.00    +0.005 C 
ATOM     11  C   UNL     1       3.548   1.928  -8.754  0.00  0.00    +0.010 C 
ATOM     12  C   UNL     1       3.297   3.075 -10.250  0.00  0.00    +0.027 C 
ATOM     13  C   UNL     1       0.511   2.232  -8.426  0.00  0.00    +0.007 C 
ATOM     14  C   UNL     1       1.638   3.238 -10.068  0.00  0.00    +0.036 C 
ATOM     15  C   UNL     1       0.036   1.767  -7.679  0.00  0.00    +0.005 C 
ATOM     16  C   UNL     1       2.450   3.519 -10.647  0.00  0.00    +0.011 C 
ATOM     17  C   UNL     1       2.087   0.512  -6.475  0.00  0.00    +0.049 C 
ATOM     18  C   UNL     1       0.040   0.723  -6.262  0.00  0.00    +0.038 C 
ATOM     19  C   UNL     1       4.002   2.421  -9.534  0.00  0.00    +0.014 C 
ATOM     20  C   UNL     1       1.599   0.025  -5.694  0.00  0.00    +0.152 C 
ATOM     21  C   UNL     1       0.569   0.130  -5.587  0.00  0.00    +0.151 C 
ATOM     22  C   UNL     1       1.662  -1.094  -4.190  0.00  0.00    +0.247 C 
ATOM     23  C   UNL     1       0.588  -0.983  -4.079  0.00  0.00    +0.314 C 
ATOM     24  C   UNL     1       2.257  -1.731  -3.471  0.00  0.00    +0.181 C 
ATOM     25  C   UNL     1       1.728  -2.260  -2.624  0.00  0.00    +0.068 C 
ATOM     26  C   UNL     1       0.609  -2.144  -2.508  0.00  0.00    +0.121 C 
ATOM     27  C   UNL     1       0.130  -2.607  -1.762  0.00  0.00    +0.038 C 
ENDROOT
BRANCH  12  30
ATOM     28  O   UNL     1       5.599   2.897 -11.419  0.00  0.00    -0.457 OA
ATOM     29  O   UNL     1       6.548   4.290 -10.840  0.00  0.00    -0.246 OA
ATOM     30  C   UNL     1       4.228   3.168 -10.603  0.00  0.00    -0.022 C 
ATOM     31  C   UNL     1       4.676   2.551 -11.252  0.00  0.00    +0.264 C 
ATOM     32  C   UNL     1       4.875   3.894 -10.370  0.00  0.00    +0.094 C 
ATOM     33  C   UNL     1       5.722   3.726 -10.874  0.00  0.00    +0.332 C 
ENDBRANCH  12  30
BRANCH   4  34
ATOM     34  O   UNL     1       0.993   2.717  -9.203  0.00  0.00    -0.388 OA
ATOM     35  H   UNL     1       0.716   2.511  -8.688  0.00  0.00    +0.210 HD
ENDBRANCH   4  34
BRANCH   8  37
ATOM     36  O   UNL     1       2.962   1.130  -6.150  0.00  0.00    -0.300 OA
ATOM     37  C   UNL     1       2.476   0.799  -6.959  0.00  0.00    +0.230 C 
ENDBRANCH   8  37
BRANCH  22  38
ATOM     38  O   UNL     1       2.651  -1.196  -4.293  0.00  0.00    -0.359 OA
ATOM     39  H   UNL     1       2.928  -1.726  -4.126  0.00  0.00    +0.213 HD
ENDBRANCH  22  38
BRANCH  24  40
ATOM     40  O   UNL     1       3.246  -1.826  -3.583  0.00  0.00    -0.386 OA
ATOM     41  H   UNL     1       3.474  -2.242  -3.982  0.00  0.00    +0.210 HD
ENDBRANCH  24  40
TORSDOF 5
ENDMDL
MODEL 2
REMARK VINA RESULT:      -8.1     10.013     13.915
REMARK  Name = 16142
REMARK  7 active torsions:
REMARK  status: ('A' for Active; 'I' for Inactive)
REMARK    1  A    between atoms: O_1  and  C_10
REMARK    2  A    between atoms: O_7  and  C_30
REMARK    3  A    between atoms: O_8  and  C_34
REMARK    4  A    between atoms: C_13  and  C_25
REMARK    5  A    between atoms: C_14  and  C_28
REMARK    6  A    between atoms: C_18  and  C_29
REMARK    7  A    between atoms: C_37  and  C_38
REMARK                            x       y       z     vdW  Elec       q    Type
REMARK                         _______ _______ _______ _____ _____    ______ ____
ROOT
ATOM      1  O   UNL     1      -3.677  -6.059   5.025  0.00  0.00    -0.337 OA
ATOM      2  O   UNL     1      -3.733  -5.604   7.131  0.00  0.00    -0.341 OA
ATOM      3  O   UNL     1      -3.776  -7.466   7.577  0.00  0.00    -0.343 OA
ATOM      4  C   UNL     1      -3.561  -0.792   3.965  0.00  0.00    +0.075 C 
ATOM      5  C   UNL     1      -3.594  -1.575   4.651  0.00  0.00    +0.025 C 
ATOM      6  C   UNL     1      -3.600  -2.526   4.345  0.00  0.00    +0.008 C 
ATOM      7  C   UNL     1      -3.533  -1.003   2.945  0.00  0.00    +0.004 C 
ATOM      8  C   UNL     1      -3.632  -3.268   5.015  0.00  0.00    +0.034 C 
ATOM      9  C   UNL     1      -3.658  -3.057   5.992  0.00  0.00    +0.005 C 
ATOM     10  C   UNL     1      -3.573  -2.762   3.330  0.00  0.00    +0.005 C 
ATOM     11  C   UNL     1      -3.539  -1.995   2.626  0.00  0.00    +0.010 C 
ATOM     12  C   UNL     1      -3.503  -0.104   2.435  0.00  0.00    +0.027 C 
ATOM     13  C   UNL     1      -3.620  -1.364   5.629  0.00  0.00    +0.007 C 
ATOM     14  C   UNL     1      -3.548   0.238   4.076  0.00  0.00    +0.036 C 
ATOM     15  C   UNL     1      -3.652  -2.105   6.299  0.00  0.00    +0.005 C 
ATOM     16  C   UNL     1      -3.512   0.663   3.133  0.00  0.00    +0.011 C 
ATOM     17  C   UNL     1      -3.638  -4.253   4.681  0.00  0.00    +0.049 C 
ATOM     18  C   UNL     1      -3.692  -3.818   6.703  0.00  0.00    +0.038 C 
ATOM     19  C   UNL     1      -3.507  -1.207   1.966  0.00  0.00    +0.014 C 
ATOM     20  C   UNL     1      -3.671  -5.031   5.373  0.00  0.00    +0.152 C 
ATOM     21  C   UNL     1      -3.698  -4.812   6.391  0.00  0.00    +0.151 C 
ATOM     22  C   UNL     1      -3.712  -6.869   5.746  0.00  0.00    +0.247 C 
ATOM     23  C   UNL     1      -3.740  -6.640   6.807  0.00  0.00    +0.314 C 
ATOM     24  C   UNL     1      -3.718  -7.939   5.383  0.00  0.00    +0.181 C 
ATOM     25  C   UNL     1      -3.754  -8.783   6.134  0.00  0.00    +0.068 C 
ATOM     26  C   UNL     1      -3.783  -8.544   7.239  0.00  0.00    +0.121 C 
ATOM     27  C   UNL     1      -3.815  -9.283   7.912  0.00  0.00    +0.038 C 
ENDROOT
BRANCH  12  30
ATOM     28  O   UNL     1      -2.942   0.048  -0.086  0.00  0.00    -0.457 OA
ATOM     29  O   UNL     1      -4.448   0.559  -0.890  0.00  0.00    -0.246 OA
ATOM     30  C   UNL     1      -3.472   0.008   1.442  0.00  0.00    -0.022 C 
ATOM     31  C   UNL     1      -2.673  -0.140   0.859  0.00  0.00    +0.264 C 
ATOM     32  C   UNL     1      -4.234   0.288   0.858  0.00  0.00    +0.094 C 
ATOM     33  C   UNL     1      -3.906   0.313  -0.087  0.00  0.00    +0.332 C 
ENDBRANCH  12  30
BRANCH   4  34
ATOM     34  O   UNL     1      -3.587  -0.589   4.944  0.00  0.00    -0.388 OA
ATOM     35  H   UNL     1      -3.095  -0.715   5.300  0.00  0.00    +0.210 HD
ENDBRANCH   4  34
BRANCH   8  37
ATOM     36  O   UNL     1      -2.795  -4.315   3.918  0.00  0.00    -0.300 OA
ATOM     37  C   UNL     1      -3.615  -3.800   4.170  0.00  0.00    +0.230 C 
ENDBRANCH   8  37
BRANCH  22  38
ATOM     38  O   UNL     1      -3.685  -7.079   4.769  0.00  0.00    -0.359 OA
ATOM     39  H   UNL     1      -3.821  -7.651   4.571  0.00  0.00    +0.213 HD
ENDBRANCH  22  38
BRANCH  24  40
ATOM     40  O   UNL     1      -3.691  -8.138   4.403  0.00  0.00    -0.386 OA
ATOM     41  H   UNL     1      -3.165  -8.061   4.086  0.00  0.00    +0.210 HD
ENDBRANCH  24  40
TORSDOF 5
ENDMDL
MODEL 3
REMARK VINA RESULT:      -8.0     10.323     13.600
REMARK  Name = 16142
REMARK  7 active torsions:
REMARK  status: ('A' for Active; 'I' for Inactive)
REMARK    1  A    between atoms: O_1  and  C_10
REMARK    2  A    between atoms: O_7  and  C_30
REMARK    3  A    between atoms: O_8  and  C_34
REMARK    4  A    between atoms: C_13  and  C_25
REMARK    5  A    between atoms: C_14  and  C_28
REMARK    6  A    between atoms: C_18  and  C_29
REMARK    7  A    between atoms: C_37  and  C_38
REMARK                            x       y       z     vdW  Elec       q    Type
REMARK                         _______ _______ _______ _____ _____    ______ ____
ROOT
ATOM      1  O   UNL     1      -3.834  -5.281   5.998  0.00  0.00    -0.337 OA
ATOM      2  O   UNL     1      -2.068  -6.477   5.692  0.00  0.00    -0.341 OA
ATOM      3  O   UNL     1      -2.557  -7.647   7.126  0.00  0.00    -0.343 OA
ATOM      4  C   UNL     1      -2.299  -2.106   1.943  0.00  0.00    +0.075 C 
ATOM      5  C   UNL     1      -2.134  -2.932   2.556  0.00  0.00    +0.025 C 
ATOM      6  C   UNL     1      -2.782  -3.172   3.279  0.00  0.00    +0.008 C 
ATOM      7  C   UNL     1      -3.150  -1.523   2.084  0.00  0.00    +0.004 C 
ATOM      8  C   UNL     1      -2.610  -3.968   3.860  0.00  0.00    +0.034 C 
ATOM      9  C   UNL     1      -1.790  -4.523   3.718  0.00  0.00    +0.005 C 
ATOM     10  C   UNL     1      -3.640  -2.604   3.439  0.00  0.00    +0.005 C 
ATOM     11  C   UNL     1      -3.825  -1.774   2.837  0.00  0.00    +0.010 C 
ATOM     12  C   UNL     1      -3.133  -0.761   1.385  0.00  0.00    +0.027 C 
ATOM     13  C   UNL     1      -1.314  -3.487   2.414  0.00  0.00    +0.007 C 
ATOM     14  C   UNL     1      -1.762  -1.698   1.157  0.00  0.00    +0.036 C 
ATOM     15  C   UNL     1      -1.142  -4.282   2.995  0.00  0.00    +0.005 C 
ATOM     16  C   UNL     1      -2.276  -0.868   0.812  0.00  0.00    +0.011 C 
ATOM     17  C   UNL     1      -3.294  -4.206   4.608  0.00  0.00    +0.049 C 
ATOM     18  C   UNL     1      -1.598  -5.354   4.315  0.00  0.00    +0.038 C 
ATOM     19  C   UNL     1      -3.968  -0.964   2.221  0.00  0.00    +0.014 C 
ATOM     20  C   UNL     1      -3.122  -5.033   5.218  0.00  0.00    +0.152 C 
ATOM     21  C   UNL     1      -2.269  -5.611   5.071  0.00  0.00    +0.151 C 
ATOM     22  C   UNL     1      -3.655  -6.143   6.632  0.00  0.00    +0.247 C 
ATOM     23  C   UNL     1      -2.766  -6.745   6.478  0.00  0.00    +0.314 C 
ATOM     24  C   UNL     1      -4.397  -6.401   7.445  0.00  0.00    +0.181 C 
ATOM     25  C   UNL     1      -4.211  -7.299   8.106  0.00  0.00    +0.068 C 
ATOM     26  C   UNL     1      -3.284  -7.926   7.945  0.00  0.00    +0.121 C 
ATOM     27  C   UNL     1      -3.109  -8.722   8.525  0.00  0.00    +0.038 C 
ENDROOT
BRANCH  12  30
ATOM     28  O   UNL     1      -4.986   0.892   0.659  0.00  0.00    -0.457 OA
ATOM     29  O   UNL     1      -5.214   2.003   2.033  0.00  0.00    -0.246 OA
ATOM     30  C   UNL     1      -3.822  -0.044   1.280  0.00  0.00    -0.022 C 
ATOM     31  C   UNL     1      -4.396   0.107   0.474  0.00  0.00    +0.264 C 
ATOM     32  C   UNL     1      -4.059   0.648   1.962  0.00  0.00    +0.094 C 
ATOM     33  C   UNL     1      -4.779   1.227   1.578  0.00  0.00    +0.332 C 
ENDBRANCH  12  30
BRANCH   4  34
ATOM     34  O   UNL     1      -1.481  -2.666   1.807  0.00  0.00    -0.388 OA
ATOM     35  H   UNL     1      -1.232  -2.972   2.285  0.00  0.00    +0.210 HD
ENDBRANCH   4  34
BRANCH   8  37
ATOM     36  O   UNL     1      -3.483  -3.189   5.138  0.00  0.00    -0.300 OA
ATOM     37  C   UNL     1      -3.474  -3.651   4.251  0.00  0.00    +0.230 C 
ENDBRANCH   8  37
BRANCH  22  38
ATOM     38  O   UNL     1      -4.475  -5.588   6.774  0.00  0.00    -0.359 OA
ATOM     39  H   UNL     1      -4.462  -4.979   6.654  0.00  0.00    +0.213 HD
ENDBRANCH  22  38
BRANCH  24  40
ATOM     40  O   UNL     1      -5.214  -5.839   7.578  0.00  0.00    -0.386 OA
ATOM     41  H   UNL     1      -5.411  -5.466   7.123  0.00  0.00    +0.210 HD
ENDBRANCH  24  40
TORSDOF 5
ENDMDL
MODEL 4
REMARK VINA RESULT:      -7.9      5.381     10.440
REMARK  Name = 16142
REMARK  7 active torsions:
REMARK  status: ('A' for Active; 'I' for Inactive)
REMARK    1  A    between atoms: O_1  and  C_10
REMARK    2  A    between atoms: O_7  and  C_30
REMARK    3  A    between atoms: O_8  and  C_34
REMARK    4  A    between atoms: C_13  and  C_25
REMARK    5  A    between atoms: C_14  and  C_28
REMARK    6  A    between atoms: C_18  and  C_29
REMARK    7  A    between atoms: C_37  and  C_38
REMARK                            x       y       z     vdW  Elec       q    Type
REMARK                         _______ _______ _______ _____ _____    ______ ____
ROOT
ATOM      1  O   UNL     1       1.284  -1.927  -2.590  0.00  0.00    -0.337 OA
ATOM      2  O   UNL     1       1.790  -4.019  -2.487  0.00  0.00    -0.341 OA
ATOM      3  O   UNL     1       3.024  -3.837  -3.939  0.00  0.00    -0.343 OA
ATOM      4  C   UNL     1      -2.134  -2.626   1.499  0.00  0.00    +0.075 C 
ATOM      5  C   UNL     1      -1.433  -3.011   0.831  0.00  0.00    +0.025 C 
ATOM      6  C   UNL     1      -0.997  -2.424   0.149  0.00  0.00    +0.008 C 
ATOM      7  C   UNL     1      -2.384  -1.616   1.455  0.00  0.00    +0.004 C 
ATOM      8  C   UNL     1      -0.326  -2.808  -0.486  0.00  0.00    +0.034 C 
ATOM      9  C   UNL     1      -0.091  -3.778  -0.438  0.00  0.00    +0.005 C 
ATOM     10  C   UNL     1      -1.232  -1.411   0.087  0.00  0.00    +0.005 C 
ATOM     11  C   UNL     1      -1.930  -1.004   0.744  0.00  0.00    +0.010 C 
ATOM     12  C   UNL     1      -3.087  -1.431   2.191  0.00  0.00    +0.027 C 
ATOM     13  C   UNL     1      -1.198  -3.982   0.879  0.00  0.00    +0.007 C 
ATOM     14  C   UNL     1      -2.685  -3.057   2.262  0.00  0.00    +0.036 C 
ATOM     15  C   UNL     1      -0.527  -4.365   0.244  0.00  0.00    +0.005 C 
ATOM     16  C   UNL     1      -3.274  -2.320   2.689  0.00  0.00    +0.011 C 
ATOM     17  C   UNL     1       0.119  -2.184  -1.191  0.00  0.00    +0.049 C 
ATOM     18  C   UNL     1       0.606  -4.192  -1.092  0.00  0.00    +0.038 C 
ATOM     19  C   UNL     1      -2.624  -0.646   1.413  0.00  0.00    +0.014 C 
ATOM     20  C   UNL     1       0.819  -2.576  -1.855  0.00  0.00    +0.152 C 
ATOM     21  C   UNL     1       1.064  -3.587  -1.806  0.00  0.00    +0.151 C 
ATOM     22  C   UNL     1       2.012  -2.335  -3.282  0.00  0.00    +0.247 C 
ATOM     23  C   UNL     1       2.268  -3.389  -3.230  0.00  0.00    +0.314 C 
ATOM     24  C   UNL     1       2.496  -1.658  -4.047  0.00  0.00    +0.181 C 
ATOM     25  C   UNL     1       3.255  -2.083  -4.768  0.00  0.00    +0.068 C 
ATOM     26  C   UNL     1       3.521  -3.181  -4.713  0.00  0.00    +0.121 C 
ATOM     27  C   UNL     1       4.191  -3.568  -5.347  0.00  0.00    +0.038 C 
ENDROOT
BRANCH  12  30
ATOM     28  O   UNL     1      -3.877   0.862   3.091  0.00  0.00    -0.457 OA
ATOM     29  O   UNL     1      -5.156   1.409   1.976  0.00  0.00    -0.246 OA
ATOM     30  C   UNL     1      -3.514  -0.548   2.388  0.00  0.00    -0.022 C 
ATOM     31  C   UNL     1      -3.289   0.056   3.152  0.00  0.00    +0.264 C 
ATOM     32  C   UNL     1      -4.240  -0.115   1.854  0.00  0.00    +0.094 C 
ATOM     33  C   UNL     1      -4.465   0.757   2.289  0.00  0.00    +0.332 C 
ENDBRANCH  12  30
BRANCH   4  34
ATOM     34  O   UNL     1      -1.893  -3.596   1.540  0.00  0.00    -0.388 OA
ATOM     35  H   UNL     1      -1.481  -3.831   1.141  0.00  0.00    +0.210 HD
ENDBRANCH   4  34
BRANCH   8  37
ATOM     36  O   UNL     1      -0.699  -1.619  -1.689  0.00  0.00    -0.300 OA
ATOM     37  C   UNL     1      -0.328  -1.856  -0.791  0.00  0.00    +0.230 C 
ENDBRANCH   8  37
BRANCH  22  38
ATOM     38  O   UNL     1       1.777  -1.364  -3.330  0.00  0.00    -0.359 OA
ATOM     39  H   UNL     1       1.659  -1.048  -2.809  0.00  0.00    +0.213 HD
ENDBRANCH  22  38
BRANCH  24  40
ATOM     40  O   UNL     1       2.253  -0.688  -4.086  0.00  0.00    -0.386 OA
ATOM     41  H   UNL     1       2.160  -0.414  -4.634  0.00  0.00    +0.210 HD
ENDBRANCH  24  40
TORSDOF 5
ENDMDL
MODEL 5
REMARK VINA RESULT:      -7.7      3.475      7.072
REMARK  Name = 16142
REMARK  7 active torsions:
REMARK  status: ('A' for Active; 'I' for Inactive)
REMARK    1  A    between atoms: O_1  and  C_10
REMARK    2  A    between atoms: O_7  and  C_30
REMARK    3  A    between atoms: O_8  and  C_34
REMARK    4  A    between atoms: C_13  and  C_25
REMARK    5  A    between atoms: C_14  and  C_28
REMARK    6  A    between atoms: C_18  and  C_29
REMARK    7  A    between atoms: C_37  and  C_38
REMARK                            x       y       z     vdW  Elec       q    Type
REMARK                         _______ _______ _______ _____ _____    ______ ____
ROOT
ATOM      1  O   UNL     1       7.294   3.766  -7.300  0.00  0.00    -0.337 OA
ATOM      2  O   UNL     1       8.335   4.519  -9.030  0.00  0.00    -0.341 OA
ATOM      3  O   UNL     1       9.923   4.815  -8.002  0.00  0.00    -0.343 OA
ATOM      4  C   UNL     1       2.933   3.003 -10.347  0.00  0.00    +0.075 C 
ATOM      5  C   UNL     1       3.922   3.313 -10.247  0.00  0.00    +0.025 C 
ATOM      6  C   UNL     1       4.389   3.266  -9.364  0.00  0.00    +0.008 C 
ATOM      7  C   UNL     1       2.423   2.638  -9.515  0.00  0.00    +0.004 C 
ATOM      8  C   UNL     1       5.339   3.567  -9.283  0.00  0.00    +0.034 C 
ATOM      9  C   UNL     1       5.822   3.916 -10.086  0.00  0.00    +0.005 C 
ATOM     10  C   UNL     1       3.899   2.904  -8.518  0.00  0.00    +0.005 C 
ATOM     11  C   UNL     1       2.909   2.588  -8.594  0.00  0.00    +0.010 C 
ATOM     12  C   UNL     1       1.466   2.385  -9.815  0.00  0.00    +0.027 C 
ATOM     13  C   UNL     1       4.406   3.662 -11.050  0.00  0.00    +0.007 C 
ATOM     14  C   UNL     1       2.286   2.972 -11.155  0.00  0.00    +0.036 C 
ATOM     15  C   UNL     1       5.356   3.964 -10.969  0.00  0.00    +0.005 C 
ATOM     16  C   UNL     1       1.381   2.591 -10.827  0.00  0.00    +0.011 C 
ATOM     17  C   UNL     1       5.811   3.512  -8.357  0.00  0.00    +0.049 C 
ATOM     18  C   UNL     1       6.812   4.234 -10.018  0.00  0.00    +0.038 C 
ATOM     19  C   UNL     1       1.933   2.288  -8.716  0.00  0.00    +0.014 C 
ATOM     20  C   UNL     1       6.801   3.824  -8.265  0.00  0.00    +0.152 C 
ATOM     21  C   UNL     1       7.305   4.188  -9.101  0.00  0.00    +0.151 C 
ATOM     22  C   UNL     1       8.324   4.092  -7.204  0.00  0.00    +0.247 C 
ATOM     23  C   UNL     1       8.849   4.471  -8.076  0.00  0.00    +0.314 C 
ATOM     24  C   UNL     1       8.838   4.031  -6.199  0.00  0.00    +0.181 C 
ATOM     25  C   UNL     1       9.911   4.370  -6.099  0.00  0.00    +0.068 C 
ATOM     26  C   UNL     1      10.457   4.765  -7.007  0.00  0.00    +0.121 C 
ATOM     27  C   UNL     1      11.407   5.067  -6.930  0.00  0.00    +0.038 C 
ENDROOT
BRANCH  12  30
ATOM     28  O   UNL     1      -0.475   1.886  -8.178  0.00  0.00    -0.457 OA
ATOM     29  O   UNL     1      -0.688   0.117  -8.201  0.00  0.00    -0.246 OA
ATOM     30  C   UNL     1       0.747   2.007  -9.232  0.00  0.00    -0.022 C 
ATOM     31  C   UNL     1       0.137   2.530  -8.637  0.00  0.00    +0.264 C 
ATOM     32  C   UNL     1       0.512   1.039  -9.141  0.00  0.00    +0.094 C 
ATOM     33  C   UNL     1      -0.243   0.964  -8.490  0.00  0.00    +0.332 C 
ENDBRANCH  12  30
BRANCH   4  34
ATOM     34  O   UNL     1       3.423   3.353 -11.145  0.00  0.00    -0.388 OA
ATOM     35  H   UNL     1       3.121   3.684 -11.573  0.00  0.00    +0.210 HD
ENDBRANCH   4  34
BRANCH   8  37
ATOM     36  O   UNL     1       5.136   3.976  -7.612  0.00  0.00    -0.300 OA
ATOM     37  C   UNL     1       5.165   3.290  -8.339  0.00  0.00    +0.230 C 
ENDBRANCH   8  37
BRANCH  22  38
ATOM     38  O   UNL     1       7.841   3.742  -6.402  0.00  0.00    -0.359 OA
ATOM     39  H   UNL     1       8.160   3.561  -5.902  0.00  0.00    +0.213 HD
ENDBRANCH  22  38
BRANCH  24  40
ATOM     40  O   UNL     1       8.344   3.681  -5.403  0.00  0.00    -0.386 OA
ATOM     41  H   UNL     1       8.177   4.067  -4.948  0.00  0.00    +0.210 HD
ENDBRANCH  24  40
TORSDOF 5
ENDMDL
MODEL 6
REMARK VINA RESULT:      -7.5      7.586      9.527
REMARK  Name = 16142
REMARK  7 active torsions:
REMARK  status: ('A' for Active; 'I' for Inactive)
REMARK    1  A    between atoms: O_1  and  C_10
REMARK    2  A    between atoms: O_7  and  C_30
REMARK    3  A    between atoms: O_8  and  C_34
REMARK    4  A    between atoms: C_13  and  C_25
REMARK    5  A    between atoms: C_14  and  C_28
REMARK    6  A    between atoms: C_18  and  C_29
REMARK    7  A    between atoms: C_37  and  C_38
REMARK                            x       y       z     vdW  Elec       q    Type
REMARK                         _______ _______ _______ _____ _____    ______ ____
ROOT
ATOM      1  O   UNL     1      -2.219  -0.817  -0.054  0.00  0.00    -0.337 OA
ATOM      2  O   UNL     1      -2.998  -1.722   1.740  0.00  0.00    -0.341 OA
ATOM      3  O   UNL     1      -4.143  -0.221   2.054  0.00  0.00    -0.343 OA
ATOM      4  C   UNL     1       0.926  -5.115  -0.772  0.00  0.00    +0.075 C 
ATOM      5  C   UNL     1       0.206  -4.605  -0.218  0.00  0.00    +0.025 C 
ATOM      6  C   UNL     1      -0.124  -3.707  -0.510  0.00  0.00    +0.008 C 
ATOM      7  C   UNL     1       1.307  -4.684  -1.640  0.00  0.00    +0.004 C 
ATOM      8  C   UNL     1      -0.816  -3.229   0.032  0.00  0.00    +0.034 C 
ATOM      9  C   UNL     1      -1.177  -3.649   0.864  0.00  0.00    +0.005 C 
ATOM     10  C   UNL     1       0.243  -3.257  -1.374  0.00  0.00    +0.005 C 
ATOM     11  C   UNL     1       0.963  -3.749  -1.943  0.00  0.00    +0.010 C 
ATOM     12  C   UNL     1       2.002  -5.338  -2.041  0.00  0.00    +0.027 C 
ATOM     13  C   UNL     1      -0.155  -5.025   0.614  0.00  0.00    +0.007 C 
ATOM     14  C   UNL     1       1.389  -6.033  -0.643  0.00  0.00    +0.036 C 
ATOM     15  C   UNL     1      -0.847  -4.547   1.156  0.00  0.00    +0.005 C 
ATOM     16  C   UNL     1       2.053  -6.170  -1.426  0.00  0.00    +0.011 C 
ATOM     17  C   UNL     1      -1.150  -2.295  -0.284  0.00  0.00    +0.049 C 
ATOM     18  C   UNL     1      -1.898  -3.163   1.439  0.00  0.00    +0.038 C 
ATOM     19  C   UNL     1       1.673  -4.270  -2.474  0.00  0.00    +0.014 C 
ATOM     20  C   UNL     1      -1.871  -1.791   0.275  0.00  0.00    +0.152 C 
ATOM     21  C   UNL     1      -2.247  -2.227   1.141  0.00  0.00    +0.151 C 
ATOM     22  C   UNL     1      -2.970  -0.292   0.527  0.00  0.00    +0.247 C 
ATOM     23  C   UNL     1      -3.362  -0.748   1.431  0.00  0.00    +0.314 C 
ATOM     24  C   UNL     1      -3.333   0.722   0.185  0.00  0.00    +0.181 C 
ATOM     25  C   UNL     1      -4.114   1.269   0.791  0.00  0.00    +0.068 C 
ATOM     26  C   UNL     1      -4.522   0.794   1.732  0.00  0.00    +0.121 C 
ATOM     27  C   UNL     1      -5.214   1.269   2.276  0.00  0.00    +0.038 C 
ENDROOT
BRANCH  12  30
ATOM     28  O   UNL     1       2.974  -5.158  -4.431  0.00  0.00    -0.457 OA
ATOM     29  O   UNL     1       4.596  -4.444  -4.245  0.00  0.00    -0.246 OA
ATOM     30  C   UNL     1       2.532  -5.193  -2.876  0.00  0.00    -0.022 C 
ATOM     31  C   UNL     1       2.237  -5.412  -3.806  0.00  0.00    +0.264 C 
ATOM     32  C   UNL     1       3.452  -4.804  -2.927  0.00  0.00    +0.094 C 
ATOM     33  C   UNL     1       3.725  -4.782  -3.889  0.00  0.00    +0.332 C 
ENDBRANCH  12  30
BRANCH   4  34
ATOM     34  O   UNL     1       0.560  -5.528   0.062  0.00  0.00    -0.388 OA
ATOM     35  H   UNL     1       0.773  -6.078   0.255  0.00  0.00    +0.210 HD
ENDBRANCH   4  34
BRANCH   8  37
ATOM     36  O   UNL     1      -0.209  -1.700  -0.511  0.00  0.00    -0.300 OA
ATOM     37  C   UNL     1      -0.679  -2.563  -0.701  0.00  0.00    +0.230 C 
ENDBRANCH   8  37
BRANCH  22  38
ATOM     38  O   UNL     1      -2.608   0.128  -0.305  0.00  0.00    -0.359 OA
ATOM     39  H   UNL     1      -2.994   0.399  -0.708  0.00  0.00    +0.213 HD
ENDBRANCH  22  38
BRANCH  24  40
ATOM     40  O   UNL     1      -2.964   1.133  -0.650  0.00  0.00    -0.386 OA
ATOM     41  H   UNL     1      -2.572   0.811  -1.006  0.00  0.00    +0.210 HD
ENDBRANCH  24  40
TORSDOF 5
ENDMDL
MODEL 7
REMARK VINA RESULT:      -7.4     10.371     14.235
REMARK  Name = 16142
REMARK  7 active torsions:
REMARK  status: ('A' for Active; 'I' for Inactive)
REMARK    1  A    between atoms: O_1  and  C_10
REMARK    2  A    between atoms: O_7  and  C_30
REMARK    3  A    between atoms: O_8  and  C_34
REMARK    4  A    between atoms: C_13  and  C_25
REMARK    5  A    between atoms: C_14  and  C_28
REMARK    6  A    between atoms: C_18  and  C_29
REMARK    7  A    between atoms: C_37  and  C_38
REMARK                            x       y       z     vdW  Elec       q    Type
REMARK                         _______ _______ _______ _____ _____    ______ ____
ROOT
ATOM      1  O   UNL     1      -3.035  -1.547   1.998  0.00  0.00    -0.337 OA
ATOM      2  O   UNL     1      -4.627  -0.921   3.308  0.00  0.00    -0.341 OA
ATOM      3  O   UNL     1      -4.962   0.628   2.235  0.00  0.00    -0.343 OA
ATOM      4  C   UNL     1      -2.239  -5.839   5.132  0.00  0.00    +0.075 C 
ATOM      5  C   UNL     1      -2.757  -4.961   4.917  0.00  0.00    +0.025 C 
ATOM      6  C   UNL     1      -2.524  -4.412   4.114  0.00  0.00    +0.008 C 
ATOM      7  C   UNL     1      -1.468  -6.148   4.504  0.00  0.00    +0.004 C 
ATOM      8  C   UNL     1      -3.030  -3.571   3.920  0.00  0.00    +0.034 C 
ATOM      9  C   UNL     1      -3.769  -3.281   4.528  0.00  0.00    +0.005 C 
ATOM     10  C   UNL     1      -1.757  -4.701   3.472  0.00  0.00    +0.005 C 
ATOM     11  C   UNL     1      -1.225  -5.575   3.668  0.00  0.00    +0.010 C 
ATOM     12  C   UNL     1      -1.083  -7.030   4.883  0.00  0.00    +0.027 C 
ATOM     13  C   UNL     1      -3.496  -4.671   5.524  0.00  0.00    +0.007 C 
ATOM     14  C   UNL     1      -2.324  -6.534   5.895  0.00  0.00    +0.036 C 
ATOM     15  C   UNL     1      -4.002  -3.831   5.330  0.00  0.00    +0.005 C 
ATOM     16  C   UNL     1      -1.611  -7.269   5.742  0.00  0.00    +0.011 C 
ATOM     17  C   UNL     1      -2.776  -3.009   3.081  0.00  0.00    +0.049 C 
ATOM     18  C   UNL     1      -4.305  -2.408   4.339  0.00  0.00    +0.038 C 
ATOM     19  C   UNL     1      -0.727  -6.444   3.899  0.00  0.00    +0.014 C 
ATOM     20  C   UNL     1      -3.299  -2.133   2.872  0.00  0.00    +0.152 C 
ATOM     21  C   UNL     1      -4.068  -1.830   3.505  0.00  0.00    +0.151 C 
ATOM     22  C   UNL     1      -3.579  -0.634   1.780  0.00  0.00    +0.247 C 
ATOM     23  C   UNL     1      -4.381  -0.319   2.440  0.00  0.00    +0.314 C 
ATOM     24  C   UNL     1      -3.303  -0.024   0.870  0.00  0.00    +0.181 C 
ATOM     25  C   UNL     1      -3.870   0.927   0.643  0.00  0.00    +0.068 C 
ATOM     26  C   UNL     1      -4.706   1.255   1.330  0.00  0.00    +0.121 C 
ATOM     27  C   UNL     1      -5.214   2.095   1.139  0.00  0.00    +0.038 C 
ENDROOT
BRANCH  12  30
ATOM     28  O   UNL     1       0.501  -8.612   3.585  0.00  0.00    -0.457 OA
ATOM     29  O   UNL     1       2.134  -8.298   4.225  0.00  0.00    -0.246 OA
ATOM     30  C   UNL     1      -0.332  -7.561   4.490  0.00  0.00    -0.022 C 
ATOM     31  C   UNL     1      -0.413  -8.252   3.772  0.00  0.00    +0.264 C 
ATOM     32  C   UNL     1       0.632  -7.494   4.748  0.00  0.00    +0.094 C 
ATOM     33  C   UNL     1       1.147  -8.144   4.188  0.00  0.00    +0.332 C 
ENDBRANCH  12  30
BRANCH   4  34
ATOM     34  O   UNL     1      -2.979  -5.542   5.735  0.00  0.00    -0.388 OA
ATOM     35  H   UNL     1      -3.562  -5.522   5.524  0.00  0.00    +0.210 HD
ENDBRANCH   4  34
BRANCH   8  37
ATOM     36  O   UNL     1      -2.720  -3.751   2.225  0.00  0.00    -0.300 OA
ATOM     37  C   UNL     1      -2.390  -3.569   3.152  0.00  0.00    +0.230 C 
ENDBRANCH   8  37
BRANCH  22  38
ATOM     38  O   UNL     1      -2.840  -0.924   1.172  0.00  0.00    -0.359 OA
ATOM     39  H   UNL     1      -2.777  -0.662   0.614  0.00  0.00    +0.213 HD
ENDBRANCH  22  38
BRANCH  24  40
ATOM     40  O   UNL     1      -2.562  -0.324   0.268  0.00  0.00    -0.386 OA
ATOM     41  H   UNL     1      -2.025  -0.014   0.261  0.00  0.00    +0.210 HD
ENDBRANCH  24  40
TORSDOF 5
ENDMDL
MODEL 8
REMARK VINA RESULT:      -7.3     11.050     15.498
REMARK  Name = 16142
REMARK  7 active torsions:
REMARK  status: ('A' for Active; 'I' for Inactive)
REMARK    1  A    between atoms: O_1  and  C_10
REMARK    2  A    between atoms: O_7  and  C_30
REMARK    3  A    between atoms: O_8  and  C_34
REMARK    4  A    between atoms: C_13  and  C_25
REMARK    5  A    between atoms: C_14  and  C_28
REMARK    6  A    between atoms: C_18  and  C_29
REMARK    7  A    between atoms: C_37  and  C_38
REMARK                            x       y       z     vdW  Elec       q    Type
REMARK                         _______ _______ _______ _____ _____    ______ ____
ROOT
ATOM      1  O   UNL     1      -2.478  -1.238   3.566  0.00  0.00    -0.337 OA
ATOM      2  O   UNL     1      -4.624  -1.412   3.654  0.00  0.00    -0.341 OA
ATOM      3  O   UNL     1      -4.837   0.017   2.398  0.00  0.00    -0.343 OA
ATOM      4  C   UNL     1      -2.077  -5.266   7.101  0.00  0.00    +0.075 C 
ATOM      5  C   UNL     1      -2.661  -4.625   6.523  0.00  0.00    +0.025 C 
ATOM      6  C   UNL     1      -2.239  -3.937   5.934  0.00  0.00    +0.008 C 
ATOM      7  C   UNL     1      -1.039  -5.187   7.064  0.00  0.00    +0.004 C 
ATOM      8  C   UNL     1      -2.813  -3.329   5.385  0.00  0.00    +0.034 C 
ATOM      9  C   UNL     1      -3.809  -3.410   5.426  0.00  0.00    +0.005 C 
ATOM     10  C   UNL     1      -1.203  -3.840   5.881  0.00  0.00    +0.005 C 
ATOM     11  C   UNL     1      -0.599  -4.470   6.449  0.00  0.00    +0.010 C 
ATOM     12  C   UNL     1      -0.644  -5.901   7.700  0.00  0.00    +0.027 C 
ATOM     13  C   UNL     1      -3.657  -4.706   6.564  0.00  0.00    +0.007 C 
ATOM     14  C   UNL     1      -2.314  -6.028   7.760  0.00  0.00    +0.036 C 
ATOM     15  C   UNL     1      -4.231  -4.099   6.015  0.00  0.00    +0.005 C 
ATOM     16  C   UNL     1      -1.430  -6.420   8.130  0.00  0.00    +0.011 C 
ATOM     17  C   UNL     1      -2.360  -2.617   4.776  0.00  0.00    +0.049 C 
ATOM     18  C   UNL     1      -4.420  -2.784   4.860  0.00  0.00    +0.038 C 
ATOM     19  C   UNL     1      -0.042  -5.112   7.028  0.00  0.00    +0.014 C 
ATOM     20  C   UNL     1      -2.951  -1.980   4.201  0.00  0.00    +0.152 C 
ATOM     21  C   UNL     1      -3.988  -2.064   4.243  0.00  0.00    +0.151 C 
ATOM     22  C   UNL     1      -3.094  -0.574   2.968  0.00  0.00    +0.247 C 
ATOM     23  C   UNL     1      -4.175  -0.662   3.012  0.00  0.00    +0.314 C 
ATOM     24  C   UNL     1      -2.601   0.199   2.306  0.00  0.00    +0.181 C 
ATOM     25  C   UNL     1      -3.242   0.890   1.683  0.00  0.00    +0.068 C 
ATOM     26  C   UNL     1      -4.368   0.798   1.729  0.00  0.00    +0.121 C 
ATOM     27  C   UNL     1      -4.945   1.404   1.182  0.00  0.00    +0.038 C 
ENDROOT
BRANCH  12  30
ATOM     28  O   UNL     1       1.824  -5.948   8.475  0.00  0.00    -0.457 OA
ATOM     29  O   UNL     1       2.608  -7.237   7.526  0.00  0.00    -0.246 OA
ATOM     30  C   UNL     1       0.328  -6.063   7.871  0.00  0.00    -0.022 C 
ATOM     31  C   UNL     1       0.901  -5.569   8.525  0.00  0.00    +0.264 C 
ATOM     32  C   UNL     1       0.898  -6.748   7.417  0.00  0.00    +0.094 C 
ATOM     33  C   UNL     1       1.823  -6.677   7.791  0.00  0.00    +0.332 C 
ENDBRANCH  12  30
BRANCH   4  34
ATOM     34  O   UNL     1      -3.073  -5.341   7.136  0.00  0.00    -0.388 OA
ATOM     35  H   UNL     1      -3.409  -5.262   6.621  0.00  0.00    +0.210 HD
ENDBRANCH   4  34
BRANCH   8  37
ATOM     36  O   UNL     1      -1.594  -2.099   5.433  0.00  0.00    -0.300 OA
ATOM     37  C   UNL     1      -1.908  -2.997   5.122  0.00  0.00    +0.230 C 
ENDBRANCH   8  37
BRANCH  22  38
ATOM     38  O   UNL     1      -2.098  -0.493   2.927  0.00  0.00    -0.359 OA
ATOM     39  H   UNL     1      -1.741  -0.916   3.207  0.00  0.00    +0.213 HD
ENDBRANCH  22  38
BRANCH  24  40
ATOM     40  O   UNL     1      -1.604   0.271   2.273  0.00  0.00    -0.386 OA
ATOM     41  H   UNL     1      -1.255  -0.094   2.633  0.00  0.00    +0.210 HD
ENDBRANCH  24  40
TORSDOF 5
ENDMDL
MODEL 9
REMARK VINA RESULT:      -7.3      4.432      7.863
REMARK  Name = 16142
REMARK  7 active torsions:
REMARK  status: ('A' for Active; 'I' for Inactive)
REMARK    1  A    between atoms: O_1  and  C_10
REMARK    2  A    between atoms: O_7  and  C_30
REMARK    3  A    between atoms: O_8  and  C_34
REMARK    4  A    between atoms: C_13  and  C_25
REMARK    5  A    between atoms: C_14  and  C_28
REMARK    6  A    between atoms: C_18  and  C_29
REMARK    7  A    between atoms: C_37  and  C_38
REMARK                            x       y       z     vdW  Elec       q    Type
REMARK                         _______ _______ _______ _____ _____    ______ ____
ROOT
ATOM      1  O   UNL     1      -1.403  -1.194   0.967  0.00  0.00    -0.337 OA
ATOM      2  O   UNL     1      -2.530  -2.992   1.344  0.00  0.00    -0.341 OA
ATOM      3  O   UNL     1      -3.397  -2.185   2.849  0.00  0.00    -0.343 OA
ATOM      4  C   UNL     1       0.929  -3.623  -3.222  0.00  0.00    +0.075 C 
ATOM      5  C   UNL     1       0.263  -3.644  -2.422  0.00  0.00    +0.025 C 
ATOM      6  C   UNL     1       0.143  -2.845  -1.832  0.00  0.00    +0.008 C 
ATOM      7  C   UNL     1       1.478  -2.757  -3.411  0.00  0.00    +0.004 C 
ATOM      8  C   UNL     1      -0.501  -2.880  -1.068  0.00  0.00    +0.034 C 
ATOM      9  C   UNL     1      -1.024  -3.714  -0.892  0.00  0.00    +0.005 C 
ATOM     10  C   UNL     1       0.681  -1.969  -2.002  0.00  0.00    +0.005 C 
ATOM     11  C   UNL     1       1.352  -1.925  -2.797  0.00  0.00    +0.010 C 
ATOM     12  C   UNL     1       2.075  -2.934  -4.237  0.00  0.00    +0.027 C 
ATOM     13  C   UNL     1      -0.260  -4.478  -2.246  0.00  0.00    +0.007 C 
ATOM     14  C   UNL     1       1.192  -4.327  -3.934  0.00  0.00    +0.036 C 
ATOM     15  C   UNL     1      -0.904  -4.513  -1.482  0.00  0.00    +0.005 C 
ATOM     16  C   UNL     1       1.899  -3.903  -4.560  0.00  0.00    +0.011 C 
ATOM     17  C   UNL     1      -0.615  -2.040  -0.463  0.00  0.00    +0.049 C 
ATOM     18  C   UNL     1      -1.698  -3.765  -0.099  0.00  0.00    +0.038 C 
ATOM     19  C   UNL     1       2.004  -1.926  -3.592  0.00  0.00    +0.014 C 
ATOM     20  C   UNL     1      -1.283  -2.069   0.336  0.00  0.00    +0.152 C 
ATOM     21  C   UNL     1      -1.828  -2.937   0.519  0.00  0.00    +0.151 C 
ATOM     22  C   UNL     1      -2.098  -1.224   1.798  0.00  0.00    +0.247 C 
ATOM     23  C   UNL     1      -2.666  -2.129   1.989  0.00  0.00    +0.314 C 
ATOM     24  C   UNL     1      -2.223  -0.313   2.455  0.00  0.00    +0.181 C 
ATOM     25  C   UNL     1      -2.948  -0.344   3.322  0.00  0.00    +0.068 C 
ATOM     26  C   UNL     1      -3.539  -1.287   3.519  0.00  0.00    +0.121 C 
ATOM     27  C   UNL     1      -4.183  -1.325   4.284  0.00  0.00    +0.038 C 
ENDROOT
BRANCH  12  30
ATOM     28  O   UNL     1       4.046  -1.429  -4.973  0.00  0.00    -0.457 OA
ATOM     29  O   UNL     1       3.428  -0.443  -6.323  0.00  0.00    -0.246 OA
ATOM     30  C   UNL     1       2.711  -2.284  -4.653  0.00  0.00    -0.022 C 
ATOM     31  C   UNL     1       3.662  -2.136  -4.381  0.00  0.00    +0.264 C 
ATOM     32  C   UNL     1       2.507  -1.668  -5.413  0.00  0.00    +0.094 C 
ATOM     33  C   UNL     1       3.333  -1.139  -5.612  0.00  0.00    +0.332 C 
ENDBRANCH  12  30
BRANCH   4  34
ATOM     34  O   UNL     1       0.402  -4.453  -3.041  0.00  0.00    -0.388 OA
ATOM     35  H   UNL     1       0.066  -4.711  -3.492  0.00  0.00    +0.210 HD
ENDBRANCH   4  34
BRANCH   8  37
ATOM     36  O   UNL     1      -0.765  -1.170  -1.145  0.00  0.00    -0.300 OA
ATOM     37  C   UNL     1      -0.160  -1.946  -0.965  0.00  0.00    +0.230 C 
ENDBRANCH   8  37
BRANCH  22  38
ATOM     38  O   UNL     1      -1.575  -0.390   1.623  0.00  0.00    -0.359 OA
ATOM     39  H   UNL     1      -0.967  -0.424   1.508  0.00  0.00    +0.213 HD
ENDBRANCH  22  38
BRANCH  24  40
ATOM     40  O   UNL     1      -1.694   0.516   2.271  0.00  0.00    -0.386 OA
ATOM     41  H   UNL     1      -1.170   0.483   1.941  0.00  0.00    +0.210 HD
ENDBRANCH  24  40
TORSDOF 5
ENDMDL
