MODEL 1
REMARK VINA RESULT:      -1.3      0.000      0.000
REMARK  Name = 962
REMARK  0 active torsions:
REMARK  status: ('A' for Active; 'I' for Inactive)
REMARK                            x       y       z     vdW  Elec       q    Type
REMARK                         _______ _______ _______ _____ _____    ______ ____
ROOT
ATOM      1  O   HOH     1      -3.641   7.760   1.926  0.00  0.00    -0.410 OA
ATOM      2  H   HOH     0      -4.144   7.465   2.138  0.00  0.00    +0.205 HD
ATOM      3  H   HOH     0      -3.638   8.378   1.886  0.00  0.00    +0.205 HD
ENDROOT
TORSDOF 0
ENDMDL
MODEL 2
REMARK VINA RESULT:      -0.9     11.498     11.498
REMARK  Name = 962
REMARK  0 active torsions:
REMARK  status: ('A' for Active; 'I' for Inactive)
REMARK                            x       y       z     vdW  Elec       q    Type
REMARK                         _______ _______ _______ _____ _____    ______ ____
ROOT
ATOM      1  O   HOH     1      -5.721  -2.090   7.482  0.00  0.00    -0.410 OA
ATOM      2  H   HOH     0      -5.419  -2.088   8.023  0.00  0.00    +0.205 HD
ATOM      3  H   HOH     0      -6.314  -2.267   7.458  0.00  0.00    +0.205 HD
ENDROOT
TORSDOF 0
ENDMDL
MODEL 3
REMARK VINA RESULT:      -0.8      6.977      6.977
REMARK  Name = 962
REMARK  0 active torsions:
REMARK  status: ('A' for Active; 'I' for Inactive)
REMARK                            x       y       z     vdW  Elec       q    Type
REMARK                         _______ _______ _______ _____ _____    ______ ____
ROOT
ATOM      1  O   HOH     1      -1.825   3.898   7.446  0.00  0.00    -0.410 OA
ATOM      2  H   HOH     0      -1.390   3.477   7.315  0.00  0.00    +0.205 HD
ATOM      3  H   HOH     0      -1.717   4.499   7.338  0.00  0.00    +0.205 HD
ENDROOT
TORSDOF 0
ENDMDL
MODEL 4
REMARK VINA RESULT:      -0.7      9.458      9.458
REMARK  Name = 962
REMARK  0 active torsions:
REMARK  status: ('A' for Active; 'I' for Inactive)
REMARK                            x       y       z     vdW  Elec       q    Type
REMARK                         _______ _______ _______ _____ _____    ______ ____
ROOT
ATOM      1  O   HOH     1      -3.932  -0.059   7.239  0.00  0.00    -0.410 OA
ATOM      2  H   HOH     0      -3.496  -0.481   7.108  0.00  0.00    +0.205 HD
ATOM      3  H   HOH     0      -3.823   0.542   7.131  0.00  0.00    +0.205 HD
ENDROOT
TORSDOF 0
ENDMDL
MODEL 5
REMARK VINA RESULT:      -0.7      6.970      6.970
REMARK  Name = 962
REMARK  0 active torsions:
REMARK  status: ('A' for Active; 'I' for Inactive)
REMARK                            x       y       z     vdW  Elec       q    Type
REMARK                         _______ _______ _______ _____ _____    ______ ____
ROOT
ATOM      1  O   HOH     1      -5.936   1.178   1.850  0.00  0.00    -0.410 OA
ATOM      2  H   HOH     0      -5.634   1.180   2.392  0.00  0.00    +0.205 HD
ATOM      3  H   HOH     0      -6.529   1.001   1.826  0.00  0.00    +0.205 HD
ENDROOT
TORSDOF 0
ENDMDL
MODEL 6
REMARK VINA RESULT:      -0.7      6.677      6.677
REMARK  Name = 962
REMARK  0 active torsions:
REMARK  status: ('A' for Active; 'I' for Inactive)
REMARK                            x       y       z     vdW  Elec       q    Type
REMARK                         _______ _______ _______ _____ _____    ______ ____
ROOT
ATOM      1  O   HOH     1      -4.047   4.651   7.822  0.00  0.00    -0.410 OA
ATOM      2  H   HOH     0      -4.550   4.356   8.033  0.00  0.00    +0.205 HD
ATOM      3  H   HOH     0      -4.044   5.270   7.782  0.00  0.00    +0.205 HD
ENDROOT
TORSDOF 0
ENDMDL
MODEL 7
REMARK VINA RESULT:      -0.7      7.761      7.761
REMARK  Name = 962
REMARK  0 active torsions:
REMARK  status: ('A' for Active; 'I' for Inactive)
REMARK                            x       y       z     vdW  Elec       q    Type
REMARK                         _______ _______ _______ _____ _____    ______ ____
ROOT
ATOM      1  O   HOH     1      -3.551   1.014   5.763  0.00  0.00    -0.410 OA
ATOM      2  H   HOH     0      -4.048   0.858   5.427  0.00  0.00    +0.205 HD
ATOM      3  H   HOH     0      -3.144   0.578   5.934  0.00  0.00    +0.205 HD
ENDROOT
TORSDOF 0
ENDMDL
MODEL 8
REMARK VINA RESULT:      -0.6      9.724      9.724
REMARK  Name = 962
REMARK  0 active torsions:
REMARK  status: ('A' for Active; 'I' for Inactive)
REMARK                            x       y       z     vdW  Elec       q    Type
REMARK                         _______ _______ _______ _____ _____    ______ ____
ROOT
ATOM      1  O   HOH     1      -6.301  -1.464   3.477  0.00  0.00    -0.410 OA
ATOM      2  H   HOH     0      -6.567  -1.038   3.841  0.00  0.00    +0.205 HD
ATOM      3  H   HOH     0      -6.464  -1.506   2.880  0.00  0.00    +0.205 HD
ENDROOT
TORSDOF 0
ENDMDL
MODEL 9
REMARK VINA RESULT:      -0.5      8.794      8.794
REMARK  Name = 962
REMARK  0 active torsions:
REMARK  status: ('A' for Active; 'I' for Inactive)
REMARK                            x       y       z     vdW  Elec       q    Type
REMARK                         _______ _______ _______ _____ _____    ______ ____
ROOT
ATOM      1  O   HOH     1      -5.193  -0.762   3.450  0.00  0.00    -0.410 OA
ATOM      2  H   HOH     0      -5.295  -0.267   3.810  0.00  0.00    +0.205 HD
ATOM      3  H   HOH     0      -4.621  -0.881   3.242  0.00  0.00    +0.205 HD
ENDROOT
TORSDOF 0
ENDMDL
