MODEL 1
REMARK VINA RESULT:      -4.5      0.000      0.000
REMARK  Name = 2244
REMARK  5 active torsions:
REMARK  status: ('A' for Active; 'I' for Inactive)
REMARK    1  A    between atoms: O_1  and  C_5
REMARK    2  A    between atoms: O_1  and  C_12
REMARK    3  A    between atoms: O_2  and  C_11
REMARK    4  A    between atoms: C_6  and  C_11
REMARK    5  A    between atoms: C_12  and  C_13
REMARK                            x       y       z     vdW  Elec       q    Type
REMARK                         _______ _______ _______ _____ _____    ______ ____
ROOT
ATOM      1  C   UNL     1       9.327   5.384  -9.937  0.00  0.00    +0.146 A 
ATOM      2  C   UNL     1       8.585   6.040 -10.075  0.00  0.00    +0.101 A 
ATOM      3  C   UNL     1       9.274   4.718  -9.193  0.00  0.00    +0.047 A 
ATOM      4  C   UNL     1       7.790   6.030  -9.470  0.00  0.00    +0.018 A 
ATOM      5  C   UNL     1       8.478   4.707  -8.588  0.00  0.00    +0.004 A 
ATOM      6  C   UNL     1       7.736   5.363  -8.726  0.00  0.00    +0.001 A 
ENDROOT
BRANCH   2   8
ATOM      7  O   UNL     1       8.286   6.474 -11.725  0.00  0.00    -0.245 OA
ATOM      8  C   UNL     1       8.639   6.706 -10.819  0.00  0.00    +0.340 C 
BRANCH   8   9
ATOM      9  O   UNL     1       9.047   7.605 -10.656  0.00  0.00    -0.477 OA
ATOM     10  H   UNL     1       8.961   7.891 -10.113  0.00  0.00    +0.295 HD
ENDBRANCH   8   9
ENDBRANCH   2   8
BRANCH   1  11
ATOM     11  O   UNL     1      10.123   5.395 -10.542  0.00  0.00    -0.425 OA
BRANCH  11  13
ATOM     12  O   UNL     1      11.625   5.047  -9.752  0.00  0.00    -0.251 OA
ATOM     13  C   UNL     1      10.889   4.774 -10.372  0.00  0.00    +0.309 C 
ATOM     14  C   UNL     1      10.919   3.882 -10.821  0.00  0.00    +0.136 C 
ENDBRANCH  11  13
ENDBRANCH   1  11
TORSDOF 4
ENDMDL
MODEL 2
REMARK VINA RESULT:      -4.2      0.920      2.756
REMARK  Name = 2244
REMARK  5 active torsions:
REMARK  status: ('A' for Active; 'I' for Inactive)
REMARK    1  A    between atoms: O_1  and  C_5
REMARK    2  A    between atoms: O_1  and  C_12
REMARK    3  A    between atoms: O_2  and  C_11
REMARK    4  A    between atoms: C_6  and  C_11
REMARK    5  A    between atoms: C_12  and  C_13
REMARK                            x       y       z     vdW  Elec       q    Type
REMARK                         _______ _______ _______ _____ _____    ______ ____
ROOT
ATOM      1  C   UNL     1       9.558   4.962  -9.762  0.00  0.00    +0.146 A 
ATOM      2  C   UNL     1      10.347   4.456  -9.415  0.00  0.00    +0.101 A 
ATOM      3  C   UNL     1       8.709   4.989  -9.233  0.00  0.00    +0.047 A 
ATOM      4  C   UNL     1      10.288   3.976  -8.539  0.00  0.00    +0.018 A 
ATOM      5  C   UNL     1       8.650   4.509  -8.358  0.00  0.00    +0.004 A 
ATOM      6  C   UNL     1       9.439   4.003  -8.011  0.00  0.00    +0.001 A 
ENDROOT
BRANCH   2   8
ATOM      7  O   UNL     1      11.334   3.716 -10.630  0.00  0.00    -0.245 OA
ATOM      8  C   UNL     1      11.195   4.429  -9.943  0.00  0.00    +0.340 C 
BRANCH   8   9
ATOM      9  O   UNL     1      11.905   5.115  -9.784  0.00  0.00    -0.477 OA
ATOM     10  H   UNL     1      12.502   4.946  -9.767  0.00  0.00    +0.295 HD
ENDBRANCH   8   9
ENDBRANCH   2   8
BRANCH   1  11
ATOM     11  O   UNL     1       9.617   5.441 -10.637  0.00  0.00    -0.425 OA
BRANCH  11  13
ATOM     12  O   UNL     1       9.132   7.103 -10.566  0.00  0.00    -0.251 OA
ATOM     13  C   UNL     1       8.960   6.162 -10.858  0.00  0.00    +0.309 C 
ATOM     14  C   UNL     1       8.130   5.942 -11.370  0.00  0.00    +0.136 C 
ENDBRANCH  11  13
ENDBRANCH   1  11
TORSDOF 4
ENDMDL
MODEL 3
REMARK VINA RESULT:      -4.0      1.430      2.783
REMARK  Name = 2244
REMARK  5 active torsions:
REMARK  status: ('A' for Active; 'I' for Inactive)
REMARK    1  A    between atoms: O_1  and  C_5
REMARK    2  A    between atoms: O_1  and  C_12
REMARK    3  A    between atoms: O_2  and  C_11
REMARK    4  A    between atoms: C_6  and  C_11
REMARK    5  A    between atoms: C_12  and  C_13
REMARK                            x       y       z     vdW  Elec       q    Type
REMARK                         _______ _______ _______ _____ _____    ______ ____
ROOT
ATOM      1  C   UNL     1       8.343   5.727  -9.479  0.00  0.00    +0.146 A 
ATOM      2  C   UNL     1       8.884   5.975 -10.283  0.00  0.00    +0.101 A 
ATOM      3  C   UNL     1       8.608   4.940  -8.922  0.00  0.00    +0.047 A 
ATOM      4  C   UNL     1       9.690   5.437 -10.528  0.00  0.00    +0.018 A 
ATOM      5  C   UNL     1       9.414   4.402  -9.168  0.00  0.00    +0.004 A 
ATOM      6  C   UNL     1       9.955   4.651  -9.971  0.00  0.00    +0.001 A 
ENDROOT
BRANCH   2   8
ATOM      7  O   UNL     1       7.952   6.651 -11.577  0.00  0.00    -0.245 OA
ATOM      8  C   UNL     1       8.619   6.762 -10.840  0.00  0.00    +0.340 C 
BRANCH   8   9
ATOM      9  O   UNL     1       9.020   7.660 -10.661  0.00  0.00    -0.477 OA
ATOM     10  H   UNL     1       9.459   7.723 -10.227  0.00  0.00    +0.295 HD
ENDBRANCH   8   9
ENDBRANCH   2   8
BRANCH   1  11
ATOM     11  O   UNL     1       7.537   6.265  -9.233  0.00  0.00    -0.425 OA
BRANCH  11  13
ATOM     12  O   UNL     1       7.398   6.412  -7.513  0.00  0.00    -0.251 OA
ATOM     13  C   UNL     1       7.046   6.071  -8.384  0.00  0.00    +0.309 C 
ATOM     14  C   UNL     1       6.202   5.534  -8.406  0.00  0.00    +0.136 C 
ENDBRANCH  11  13
ENDBRANCH   1  11
TORSDOF 4
ENDMDL
MODEL 4
REMARK VINA RESULT:      -3.9      3.624      4.682
REMARK  Name = 2244
REMARK  5 active torsions:
REMARK  status: ('A' for Active; 'I' for Inactive)
REMARK    1  A    between atoms: O_1  and  C_5
REMARK    2  A    between atoms: O_1  and  C_12
REMARK    3  A    between atoms: O_2  and  C_11
REMARK    4  A    between atoms: C_6  and  C_11
REMARK    5  A    between atoms: C_12  and  C_13
REMARK                            x       y       z     vdW  Elec       q    Type
REMARK                         _______ _______ _______ _____ _____    ______ ____
ROOT
ATOM      1  C   UNL     1       6.753   6.395  -6.951  0.00  0.00    +0.146 A 
ATOM      2  C   UNL     1       6.683   6.707  -6.003  0.00  0.00    +0.101 A 
ATOM      3  C   UNL     1       5.986   6.528  -7.579  0.00  0.00    +0.047 A 
ATOM      4  C   UNL     1       5.847   7.153  -5.684  0.00  0.00    +0.018 A 
ATOM      5  C   UNL     1       5.150   6.974  -7.260  0.00  0.00    +0.004 A 
ATOM      6  C   UNL     1       5.080   7.286  -6.312  0.00  0.00    +0.001 A 
ENDROOT
BRANCH   2   8
ATOM      7  O   UNL     1       7.530   5.723  -4.857  0.00  0.00    -0.245 OA
ATOM      8  C   UNL     1       7.450   6.574  -5.375  0.00  0.00    +0.340 C 
BRANCH   8   9
ATOM      9  O   UNL     1       8.137   7.293  -5.265  0.00  0.00    -0.477 OA
ATOM     10  H   UNL     1       8.706   7.150  -5.065  0.00  0.00    +0.295 HD
ENDBRANCH   8   9
ENDBRANCH   2   8
BRANCH   1  11
ATOM     11  O   UNL     1       7.589   5.949  -7.270  0.00  0.00    -0.425 OA
BRANCH  11  13
ATOM     12  O   UNL     1       7.869   6.214  -8.959  0.00  0.00    -0.251 OA
ATOM     13  C   UNL     1       7.643   5.597  -8.204  0.00  0.00    +0.309 C 
ATOM     14  C   UNL     1       7.471   4.629  -8.384  0.00  0.00    +0.136 C 
ENDBRANCH  11  13
ENDBRANCH   1  11
TORSDOF 4
ENDMDL
MODEL 5
REMARK VINA RESULT:      -3.8      1.599      2.410
REMARK  Name = 2244
REMARK  5 active torsions:
REMARK  status: ('A' for Active; 'I' for Inactive)
REMARK    1  A    between atoms: O_1  and  C_5
REMARK    2  A    between atoms: O_1  and  C_12
REMARK    3  A    between atoms: O_2  and  C_11
REMARK    4  A    between atoms: C_6  and  C_11
REMARK    5  A    between atoms: C_12  and  C_13
REMARK                            x       y       z     vdW  Elec       q    Type
REMARK                         _______ _______ _______ _____ _____    ______ ____
ROOT
ATOM      1  C   UNL     1       9.406   4.870  -9.393  0.00  0.00    +0.146 A 
ATOM      2  C   UNL     1       8.653   4.869  -8.735  0.00  0.00    +0.101 A 
ATOM      3  C   UNL     1       9.346   5.427 -10.221  0.00  0.00    +0.047 A 
ATOM      4  C   UNL     1       7.839   5.425  -8.905  0.00  0.00    +0.018 A 
ATOM      5  C   UNL     1       8.532   5.983 -10.392  0.00  0.00    +0.004 A 
ATOM      6  C   UNL     1       7.779   5.982  -9.734  0.00  0.00    +0.001 A 
ENDROOT
BRANCH   2   8
ATOM      7  O   UNL     1       8.394   3.364  -7.917  0.00  0.00    -0.245 OA
ATOM      8  C   UNL     1       8.713   4.312  -7.907  0.00  0.00    +0.340 C 
BRANCH   8   9
ATOM      9  O   UNL     1       9.093   4.702  -7.068  0.00  0.00    -0.477 OA
ATOM     10  H   UNL     1       9.491   5.177  -7.100  0.00  0.00    +0.295 HD
ENDBRANCH   8   9
ENDBRANCH   2   8
BRANCH   1  11
ATOM     11  O   UNL     1      10.220   4.314  -9.222  0.00  0.00    -0.425 OA
BRANCH  11  13
ATOM     12  O   UNL     1      11.655   5.092  -9.801  0.00  0.00    -0.251 OA
ATOM     13  C   UNL     1      10.990   4.347  -9.859  0.00  0.00    +0.309 C 
ATOM     14  C   UNL     1      11.096   3.635 -10.553  0.00  0.00    +0.136 C 
ENDBRANCH  11  13
ENDBRANCH   1  11
TORSDOF 4
ENDMDL
MODEL 6
REMARK VINA RESULT:      -3.8      4.433      5.493
REMARK  Name = 2244
REMARK  5 active torsions:
REMARK  status: ('A' for Active; 'I' for Inactive)
REMARK    1  A    between atoms: O_1  and  C_5
REMARK    2  A    between atoms: O_1  and  C_12
REMARK    3  A    between atoms: O_2  and  C_11
REMARK    4  A    between atoms: C_6  and  C_11
REMARK    5  A    between atoms: C_12  and  C_13
REMARK                            x       y       z     vdW  Elec       q    Type
REMARK                         _______ _______ _______ _____ _____    ______ ____
ROOT
ATOM      1  C   UNL     1       7.146   5.799  -5.392  0.00  0.00    +0.146 A 
ATOM      2  C   UNL     1       7.335   6.383  -4.602  0.00  0.00    +0.101 A 
ATOM      3  C   UNL     1       6.232   5.417  -5.523  0.00  0.00    +0.047 A 
ATOM      4  C   UNL     1       6.610   6.584  -3.944  0.00  0.00    +0.018 A 
ATOM      5  C   UNL     1       5.506   5.618  -4.864  0.00  0.00    +0.004 A 
ATOM      6  C   UNL     1       5.695   6.202  -4.075  0.00  0.00    +0.001 A 
ENDROOT
BRANCH   2   8
ATOM      7  O   UNL     1       8.922   6.276  -3.915  0.00  0.00    -0.245 OA
ATOM      8  C   UNL     1       8.250   6.766  -4.471  0.00  0.00    +0.340 C 
BRANCH   8   9
ATOM      9  O   UNL     1       8.492   7.638  -4.895  0.00  0.00    -0.477 OA
ATOM     10  H   UNL     1       8.545   8.149  -4.547  0.00  0.00    +0.295 HD
ENDBRANCH   8   9
ENDBRANCH   2   8
BRANCH   1  11
ATOM     11  O   UNL     1       7.872   5.598  -6.050  0.00  0.00    -0.425 OA
BRANCH  11  13
ATOM     12  O   UNL     1       7.393   6.240  -7.586  0.00  0.00    -0.251 OA
ATOM     13  C   UNL     1       7.647   5.460  -7.014  0.00  0.00    +0.309 C 
ATOM     14  C   UNL     1       7.676   4.541  -7.407  0.00  0.00    +0.136 C 
ENDBRANCH  11  13
ENDBRANCH   1  11
TORSDOF 4
ENDMDL
MODEL 7
REMARK VINA RESULT:      -3.7      1.791      2.777
REMARK  Name = 2244
REMARK  5 active torsions:
REMARK  status: ('A' for Active; 'I' for Inactive)
REMARK    1  A    between atoms: O_1  and  C_5
REMARK    2  A    between atoms: O_1  and  C_12
REMARK    3  A    between atoms: O_2  and  C_11
REMARK    4  A    between atoms: C_6  and  C_11
REMARK    5  A    between atoms: C_12  and  C_13
REMARK                            x       y       z     vdW  Elec       q    Type
REMARK                         _______ _______ _______ _____ _____    ______ ____
ROOT
ATOM      1  C   UNL     1       9.771   4.215  -9.232  0.00  0.00    +0.146 A 
ATOM      2  C   UNL     1      10.199   4.749  -9.961  0.00  0.00    +0.101 A 
ATOM      3  C   UNL     1       8.825   4.400  -8.965  0.00  0.00    +0.047 A 
ATOM      4  C   UNL     1       9.680   5.469 -10.424  0.00  0.00    +0.018 A 
ATOM      5  C   UNL     1       8.307   5.119  -9.428  0.00  0.00    +0.004 A 
ATOM      6  C   UNL     1       8.734   5.654 -10.158  0.00  0.00    +0.001 A 
ENDROOT
BRANCH   2   8
ATOM      7  O   UNL     1      11.339   3.914 -10.962  0.00  0.00    -0.245 OA
ATOM      8  C   UNL     1      11.145   4.564 -10.228  0.00  0.00    +0.340 C 
BRANCH   8   9
ATOM      9  O   UNL     1      11.896   5.030  -9.760  0.00  0.00    -0.477 OA
ATOM     10  H   UNL     1      11.775   5.468  -9.339  0.00  0.00    +0.295 HD
ENDBRANCH   8   9
ENDBRANCH   2   8
BRANCH   1  11
ATOM     11  O   UNL     1      10.289   3.496  -8.769  0.00  0.00    -0.425 OA
BRANCH  11  13
ATOM     12  O   UNL     1      10.017   3.661  -7.067  0.00  0.00    -0.251 OA
ATOM     13  C   UNL     1       9.958   3.118  -7.905  0.00  0.00    +0.309 C 
ATOM     14  C   UNL     1       9.567   2.198  -7.878  0.00  0.00    +0.136 C 
ENDBRANCH  11  13
ENDBRANCH   1  11
TORSDOF 4
ENDMDL
MODEL 8
REMARK VINA RESULT:      -3.5      1.914      2.986
REMARK  Name = 2244
REMARK  5 active torsions:
REMARK  status: ('A' for Active; 'I' for Inactive)
REMARK    1  A    between atoms: O_1  and  C_5
REMARK    2  A    between atoms: O_1  and  C_12
REMARK    3  A    between atoms: O_2  and  C_11
REMARK    4  A    between atoms: C_6  and  C_11
REMARK    5  A    between atoms: C_12  and  C_13
REMARK                            x       y       z     vdW  Elec       q    Type
REMARK                         _______ _______ _______ _____ _____    ______ ____
ROOT
ATOM      1  C   UNL     1       8.921   5.149  -9.156  0.00  0.00    +0.146 A 
ATOM      2  C   UNL     1       8.750   4.708  -8.275  0.00  0.00    +0.101 A 
ATOM      3  C   UNL     1       9.703   4.868  -9.713  0.00  0.00    +0.047 A 
ATOM      4  C   UNL     1       9.360   3.986  -7.951  0.00  0.00    +0.018 A 
ATOM      5  C   UNL     1      10.313   4.145  -9.388  0.00  0.00    +0.004 A 
ATOM      6  C   UNL     1      10.142   3.705  -8.507  0.00  0.00    +0.001 A 
ENDROOT
BRANCH   2   8
ATOM      7  O   UNL     1       7.083   4.538  -7.835  0.00  0.00    -0.245 OA
ATOM      8  C   UNL     1       7.968   4.990  -7.719  0.00  0.00    +0.340 C 
BRANCH   8   9
ATOM      9  O   UNL     1       8.071   5.723  -7.046  0.00  0.00    -0.477 OA
ATOM     10  H   UNL     1       7.598   6.106  -6.931  0.00  0.00    +0.295 HD
ENDBRANCH   8   9
ENDBRANCH   2   8
BRANCH   1  11
ATOM     11  O   UNL     1       8.310   5.871  -9.481  0.00  0.00    -0.425 OA
BRANCH  11  13
ATOM     12  O   UNL     1       9.127   7.024 -10.483  0.00  0.00    -0.251 OA
ATOM     13  C   UNL     1       8.460   6.287 -10.378  0.00  0.00    +0.309 C 
ATOM     14  C   UNL     1       7.942   5.964 -11.171  0.00  0.00    +0.136 C 
ENDBRANCH  11  13
ENDBRANCH   1  11
TORSDOF 4
ENDMDL
MODEL 9
REMARK VINA RESULT:      -3.4      4.974      6.452
REMARK  Name = 2244
REMARK  5 active torsions:
REMARK  status: ('A' for Active; 'I' for Inactive)
REMARK    1  A    between atoms: O_1  and  C_5
REMARK    2  A    between atoms: O_1  and  C_12
REMARK    3  A    between atoms: O_2  and  C_11
REMARK    4  A    between atoms: C_6  and  C_11
REMARK    5  A    between atoms: C_12  and  C_13
REMARK                            x       y       z     vdW  Elec       q    Type
REMARK                         _______ _______ _______ _____ _____    ______ ____
ROOT
ATOM      1  C   UNL     1       5.909   7.000  -5.709  0.00  0.00    +0.146 A 
ATOM      2  C   UNL     1       6.789   6.658  -6.039  0.00  0.00    +0.101 A 
ATOM      3  C   UNL     1       5.141   7.096  -6.343  0.00  0.00    +0.047 A 
ATOM      4  C   UNL     1       6.901   6.413  -7.002  0.00  0.00    +0.018 A 
ATOM      5  C   UNL     1       5.253   6.851  -7.306  0.00  0.00    +0.004 A 
ATOM      6  C   UNL     1       6.134   6.510  -7.635  0.00  0.00    +0.001 A 
ENDROOT
BRANCH   2   8
ATOM      7  O   UNL     1       7.737   5.681  -4.968  0.00  0.00    -0.245 OA
ATOM      8  C   UNL     1       7.557   6.562  -5.405  0.00  0.00    +0.340 C 
BRANCH   8   9
ATOM      9  O   UNL     1       8.144   7.347  -5.209  0.00  0.00    -0.477 OA
ATOM     10  H   UNL     1       8.281   7.493  -4.622  0.00  0.00    +0.295 HD
ENDBRANCH   8   9
ENDBRANCH   2   8
BRANCH   1  11
ATOM     11  O   UNL     1       5.796   7.245  -4.746  0.00  0.00    -0.425 OA
BRANCH  11  13
ATOM     12  O   UNL     1       4.597   6.207  -4.050  0.00  0.00    -0.251 OA
ATOM     13  C   UNL     1       4.909   7.124  -4.300  0.00  0.00    +0.309 C 
ATOM     14  C   UNL     1       4.336   7.919  -4.103  0.00  0.00    +0.136 C 
ENDBRANCH  11  13
ENDBRANCH   1  11
TORSDOF 4
ENDMDL
