MODEL 1
REMARK VINA RESULT:      -4.5      0.000      0.000
REMARK  Name = 2244
REMARK  5 active torsions:
REMARK  status: ('A' for Active; 'I' for Inactive)
REMARK    1  A    between atoms: O_1  and  C_5
REMARK    2  A    between atoms: O_1  and  C_12
REMARK    3  A    between atoms: O_2  and  C_11
REMARK    4  A    between atoms: C_6  and  C_11
REMARK    5  A    between atoms: C_12  and  C_13
REMARK                            x       y       z     vdW  Elec       q    Type
REMARK                         _______ _______ _______ _____ _____    ______ ____
ROOT
ATOM      1  C   UNL     1       9.334   5.390  -9.942  0.00  0.00    +0.146 A 
ATOM      2  C   UNL     1       8.601   6.057 -10.075  0.00  0.00    +0.101 A 
ATOM      3  C   UNL     1       9.272   4.719  -9.204  0.00  0.00    +0.047 A 
ATOM      4  C   UNL     1       7.806   6.053  -9.469  0.00  0.00    +0.018 A 
ATOM      5  C   UNL     1       8.477   4.715  -8.597  0.00  0.00    +0.004 A 
ATOM      6  C   UNL     1       7.744   5.382  -8.730  0.00  0.00    +0.001 A 
ENDROOT
BRANCH   2   8
ATOM      7  O   UNL     1       8.318   6.502 -11.725  0.00  0.00    -0.245 OA
ATOM      8  C   UNL     1       8.663   6.728 -10.814  0.00  0.00    +0.340 C 
BRANCH   8   9
ATOM      9  O   UNL     1       9.070   7.625 -10.642  0.00  0.00    -0.477 OA
ATOM     10  H   UNL     1       9.160   7.819 -10.059  0.00  0.00    +0.295 HD
ENDBRANCH   8   9
ENDBRANCH   2   8
BRANCH   1  11
ATOM     11  O   UNL     1      10.129   5.395 -10.549  0.00  0.00    -0.425 OA
BRANCH  11  13
ATOM     12  O   UNL     1      11.628   5.027  -9.761  0.00  0.00    -0.251 OA
ATOM     13  C   UNL     1      10.889   4.766 -10.382  0.00  0.00    +0.309 C 
ATOM     14  C   UNL     1      10.909   3.875 -10.835  0.00  0.00    +0.136 C 
ENDBRANCH  11  13
ENDBRANCH   1  11
TORSDOF 4
ENDMDL
MODEL 2
REMARK VINA RESULT:      -4.2      0.919      2.751
REMARK  Name = 2244
REMARK  5 active torsions:
REMARK  status: ('A' for Active; 'I' for Inactive)
REMARK    1  A    between atoms: O_1  and  C_5
REMARK    2  A    between atoms: O_1  and  C_12
REMARK    3  A    between atoms: O_2  and  C_11
REMARK    4  A    between atoms: C_6  and  C_11
REMARK    5  A    between atoms: C_12  and  C_13
REMARK                            x       y       z     vdW  Elec       q    Type
REMARK                         _______ _______ _______ _____ _____    ______ ____
ROOT
ATOM      1  C   UNL     1       9.547   4.963  -9.781  0.00  0.00    +0.146 A 
ATOM      2  C   UNL     1      10.339   4.458  -9.437  0.00  0.00    +0.101 A 
ATOM      3  C   UNL     1       8.700   4.989  -9.249  0.00  0.00    +0.047 A 
ATOM      4  C   UNL     1      10.284   3.979  -8.561  0.00  0.00    +0.018 A 
ATOM      5  C   UNL     1       8.645   4.510  -8.373  0.00  0.00    +0.004 A 
ATOM      6  C   UNL     1       9.437   4.005  -8.029  0.00  0.00    +0.001 A 
ENDROOT
BRANCH   2   8
ATOM      7  O   UNL     1      11.308   3.740 -10.679  0.00  0.00    -0.245 OA
ATOM      8  C   UNL     1      11.185   4.432  -9.968  0.00  0.00    +0.340 C 
BRANCH   8   9
ATOM      9  O   UNL     1      11.908   5.099  -9.790  0.00  0.00    -0.477 OA
ATOM     10  H   UNL     1      11.938   5.385  -9.240  0.00  0.00    +0.295 HD
ENDBRANCH   8   9
ENDBRANCH   2   8
BRANCH   1  11
ATOM     11  O   UNL     1       9.602   5.442 -10.657  0.00  0.00    -0.425 OA
BRANCH  11  13
ATOM     12  O   UNL     1       9.147   7.111 -10.580  0.00  0.00    -0.251 OA
ATOM     13  C   UNL     1       8.954   6.174 -10.868  0.00  0.00    +0.309 C 
ATOM     14  C   UNL     1       8.113   5.968 -11.369  0.00  0.00    +0.136 C 
ENDBRANCH  11  13
ENDBRANCH   1  11
TORSDOF 4
ENDMDL
MODEL 3
REMARK VINA RESULT:      -4.0      1.432      2.786
REMARK  Name = 2244
REMARK  5 active torsions:
REMARK  status: ('A' for Active; 'I' for Inactive)
REMARK    1  A    between atoms: O_1  and  C_5
REMARK    2  A    between atoms: O_1  and  C_12
REMARK    3  A    between atoms: O_2  and  C_11
REMARK    4  A    between atoms: C_6  and  C_11
REMARK    5  A    between atoms: C_12  and  C_13
REMARK                            x       y       z     vdW  Elec       q    Type
REMARK                         _______ _______ _______ _____ _____    ______ ____
ROOT
ATOM      1  C   UNL     1       8.341   5.729  -9.482  0.00  0.00    +0.146 A 
ATOM      2  C   UNL     1       8.882   5.977 -10.285  0.00  0.00    +0.101 A 
ATOM      3  C   UNL     1       8.604   4.940  -8.926  0.00  0.00    +0.047 A 
ATOM      4  C   UNL     1       9.687   5.437 -10.533  0.00  0.00    +0.018 A 
ATOM      5  C   UNL     1       9.409   4.400  -9.174  0.00  0.00    +0.004 A 
ATOM      6  C   UNL     1       9.950   4.649  -9.977  0.00  0.00    +0.001 A 
ENDROOT
BRANCH   2   8
ATOM      7  O   UNL     1       7.951   6.658 -11.577  0.00  0.00    -0.245 OA
ATOM      8  C   UNL     1       8.619   6.766 -10.841  0.00  0.00    +0.340 C 
BRANCH   8   9
ATOM      9  O   UNL     1       9.024   7.662 -10.660  0.00  0.00    -0.477 OA
ATOM     10  H   UNL     1       9.113   8.061 -11.126  0.00  0.00    +0.295 HD
ENDBRANCH   8   9
ENDBRANCH   2   8
BRANCH   1  11
ATOM     11  O   UNL     1       7.537   6.269  -9.234  0.00  0.00    -0.425 OA
BRANCH  11  13
ATOM     12  O   UNL     1       7.394   6.404  -7.514  0.00  0.00    -0.251 OA
ATOM     13  C   UNL     1       7.042   6.070  -8.388  0.00  0.00    +0.309 C 
ATOM     14  C   UNL     1       6.196   5.538  -8.416  0.00  0.00    +0.136 C 
ENDBRANCH  11  13
ENDBRANCH   1  11
TORSDOF 4
ENDMDL
MODEL 4
REMARK VINA RESULT:      -3.9      3.631      4.692
REMARK  Name = 2244
REMARK  5 active torsions:
REMARK  status: ('A' for Active; 'I' for Inactive)
REMARK    1  A    between atoms: O_1  and  C_5
REMARK    2  A    between atoms: O_1  and  C_12
REMARK    3  A    between atoms: O_2  and  C_11
REMARK    4  A    between atoms: C_6  and  C_11
REMARK    5  A    between atoms: C_12  and  C_13
REMARK                            x       y       z     vdW  Elec       q    Type
REMARK                         _______ _______ _______ _____ _____    ______ ____
ROOT
ATOM      1  C   UNL     1       6.752   6.399  -6.943  0.00  0.00    +0.146 A 
ATOM      2  C   UNL     1       6.684   6.710  -5.995  0.00  0.00    +0.101 A 
ATOM      3  C   UNL     1       5.984   6.532  -7.570  0.00  0.00    +0.047 A 
ATOM      4  C   UNL     1       5.847   7.155  -5.674  0.00  0.00    +0.018 A 
ATOM      5  C   UNL     1       5.148   6.977  -7.249  0.00  0.00    +0.004 A 
ATOM      6  C   UNL     1       5.080   7.288  -6.301  0.00  0.00    +0.001 A 
ENDROOT
BRANCH   2   8
ATOM      7  O   UNL     1       7.532   5.726  -4.850  0.00  0.00    -0.245 OA
ATOM      8  C   UNL     1       7.451   6.577  -5.368  0.00  0.00    +0.340 C 
BRANCH   8   9
ATOM      9  O   UNL     1       8.139   7.295  -5.260  0.00  0.00    -0.477 OA
ATOM     10  H   UNL     1       8.561   7.255  -4.808  0.00  0.00    +0.295 HD
ENDBRANCH   8   9
ENDBRANCH   2   8
BRANCH   1  11
ATOM     11  O   UNL     1       7.588   5.954  -7.264  0.00  0.00    -0.425 OA
BRANCH  11  13
ATOM     12  O   UNL     1       7.861   6.215  -8.954  0.00  0.00    -0.251 OA
ATOM     13  C   UNL     1       7.639   5.600  -8.198  0.00  0.00    +0.309 C 
ATOM     14  C   UNL     1       7.469   4.631  -8.374  0.00  0.00    +0.136 C 
ENDBRANCH  11  13
ENDBRANCH   1  11
TORSDOF 4
ENDMDL
MODEL 5
REMARK VINA RESULT:      -3.9      1.590      2.404
REMARK  Name = 2244
REMARK  5 active torsions:
REMARK  status: ('A' for Active; 'I' for Inactive)
REMARK    1  A    between atoms: O_1  and  C_5
REMARK    2  A    between atoms: O_1  and  C_12
REMARK    3  A    between atoms: O_2  and  C_11
REMARK    4  A    between atoms: C_6  and  C_11
REMARK    5  A    between atoms: C_12  and  C_13
REMARK                            x       y       z     vdW  Elec       q    Type
REMARK                         _______ _______ _______ _____ _____    ______ ____
ROOT
ATOM      1  C   UNL     1       9.400   4.895  -9.401  0.00  0.00    +0.146 A 
ATOM      2  C   UNL     1       8.646   4.895  -8.744  0.00  0.00    +0.101 A 
ATOM      3  C   UNL     1       9.343   5.457 -10.226  0.00  0.00    +0.047 A 
ATOM      4  C   UNL     1       7.835   5.456  -8.913  0.00  0.00    +0.018 A 
ATOM      5  C   UNL     1       8.533   6.018 -10.395  0.00  0.00    +0.004 A 
ATOM      6  C   UNL     1       7.779   6.017  -9.738  0.00  0.00    +0.001 A 
ENDROOT
BRANCH   2   8
ATOM      7  O   UNL     1       8.375   3.388  -7.933  0.00  0.00    -0.245 OA
ATOM      8  C   UNL     1       8.702   4.333  -7.918  0.00  0.00    +0.340 C 
BRANCH   8   9
ATOM      9  O   UNL     1       9.085   4.716  -7.078  0.00  0.00    -0.477 OA
ATOM     10  H   UNL     1       9.351   4.343  -6.660  0.00  0.00    +0.295 HD
ENDBRANCH   8   9
ENDBRANCH   2   8
BRANCH   1  11
ATOM     11  O   UNL     1      10.210   4.334  -9.232  0.00  0.00    -0.425 OA
BRANCH  11  13
ATOM     12  O   UNL     1      11.651   5.103  -9.808  0.00  0.00    -0.251 OA
ATOM     13  C   UNL     1      10.980   4.364  -9.869  0.00  0.00    +0.309 C 
ATOM     14  C   UNL     1      11.080   3.655 -10.567  0.00  0.00    +0.136 C 
ENDBRANCH  11  13
ENDBRANCH   1  11
TORSDOF 4
ENDMDL
MODEL 6
REMARK VINA RESULT:      -3.9      1.141      3.279
REMARK  Name = 2244
REMARK  5 active torsions:
REMARK  status: ('A' for Active; 'I' for Inactive)
REMARK    1  A    between atoms: O_1  and  C_5
REMARK    2  A    between atoms: O_1  and  C_12
REMARK    3  A    between atoms: O_2  and  C_11
REMARK    4  A    between atoms: C_6  and  C_11
REMARK    5  A    between atoms: C_12  and  C_13
REMARK                            x       y       z     vdW  Elec       q    Type
REMARK                         _______ _______ _______ _____ _____    ______ ____
ROOT
ATOM      1  C   UNL     1       9.630   4.827 -10.614  0.00  0.00    +0.146 A 
ATOM      2  C   UNL     1      10.435   4.286 -10.370  0.00  0.00    +0.101 A 
ATOM      3  C   UNL     1       8.982   4.480 -11.292  0.00  0.00    +0.047 A 
ATOM      4  C   UNL     1      10.591   3.398 -10.803  0.00  0.00    +0.018 A 
ATOM      5  C   UNL     1       9.138   3.592 -11.725  0.00  0.00    +0.004 A 
ATOM      6  C   UNL     1       9.943   3.051 -11.481  0.00  0.00    +0.001 A 
ENDROOT
BRANCH   2   8
ATOM      7  O   UNL     1      11.884   5.155  -9.987  0.00  0.00    -0.245 OA
ATOM      8  C   UNL     1      11.084   4.632  -9.692  0.00  0.00    +0.340 C 
BRANCH   8   9
ATOM      9  O   UNL     1      10.932   4.457  -8.719  0.00  0.00    -0.477 OA
ATOM     10  H   UNL     1      10.528   4.021  -8.542  0.00  0.00    +0.295 HD
ENDBRANCH   8   9
ENDBRANCH   2   8
BRANCH   1  11
ATOM     11  O   UNL     1       9.474   5.714 -10.181  0.00  0.00    -0.425 OA
BRANCH  11  13
ATOM     12  O   UNL     1       9.164   6.968 -11.335  0.00  0.00    -0.251 OA
ATOM     13  C   UNL     1       8.846   6.371 -10.598  0.00  0.00    +0.309 C 
ATOM     14  C   UNL     1       7.900   6.431 -10.279  0.00  0.00    +0.136 C 
ENDBRANCH  11  13
ENDBRANCH   1  11
TORSDOF 4
ENDMDL
MODEL 7
REMARK VINA RESULT:      -3.8      4.344      5.397
REMARK  Name = 2244
REMARK  5 active torsions:
REMARK  status: ('A' for Active; 'I' for Inactive)
REMARK    1  A    between atoms: O_1  and  C_5
REMARK    2  A    between atoms: O_1  and  C_12
REMARK    3  A    between atoms: O_2  and  C_11
REMARK    4  A    between atoms: C_6  and  C_11
REMARK    5  A    between atoms: C_12  and  C_13
REMARK                            x       y       z     vdW  Elec       q    Type
REMARK                         _______ _______ _______ _____ _____    ______ ____
ROOT
ATOM      1  C   UNL     1       7.106   5.755  -5.517  0.00  0.00    +0.146 A 
ATOM      2  C   UNL     1       7.254   6.347  -4.725  0.00  0.00    +0.101 A 
ATOM      3  C   UNL     1       6.198   5.377  -5.696  0.00  0.00    +0.047 A 
ATOM      4  C   UNL     1       6.493   6.560  -4.111  0.00  0.00    +0.018 A 
ATOM      5  C   UNL     1       5.438   5.590  -5.083  0.00  0.00    +0.004 A 
ATOM      6  C   UNL     1       5.585   6.181  -4.291  0.00  0.00    +0.001 A 
ENDROOT
BRANCH   2   8
ATOM      7  O   UNL     1       8.802   6.232  -3.958  0.00  0.00    -0.245 OA
ATOM      8  C   UNL     1       8.162   6.726  -4.546  0.00  0.00    +0.340 C 
BRANCH   8   9
ATOM      9  O   UNL     1       8.429   7.598  -4.954  0.00  0.00    -0.477 OA
ATOM     10  H   UNL     1       8.060   7.872  -5.370  0.00  0.00    +0.295 HD
ENDBRANCH   8   9
ENDBRANCH   2   8
BRANCH   1  11
ATOM     11  O   UNL     1       7.867   5.542  -6.131  0.00  0.00    -0.425 OA
BRANCH  11  13
ATOM     12  O   UNL     1       7.480   6.196  -7.687  0.00  0.00    -0.251 OA
ATOM     13  C   UNL     1       7.700   5.411  -7.108  0.00  0.00    +0.309 C 
ATOM     14  C   UNL     1       7.752   4.495  -7.506  0.00  0.00    +0.136 C 
ENDBRANCH  11  13
ENDBRANCH   1  11
TORSDOF 4
ENDMDL
MODEL 8
REMARK VINA RESULT:      -3.7      6.054      7.304
REMARK  Name = 2244
REMARK  5 active torsions:
REMARK  status: ('A' for Active; 'I' for Inactive)
REMARK    1  A    between atoms: O_1  and  C_5
REMARK    2  A    between atoms: O_1  and  C_12
REMARK    3  A    between atoms: O_2  and  C_11
REMARK    4  A    between atoms: C_6  and  C_11
REMARK    5  A    between atoms: C_12  and  C_13
REMARK                            x       y       z     vdW  Elec       q    Type
REMARK                         _______ _______ _______ _____ _____    ______ ____
ROOT
ATOM      1  C   UNL     1       6.983   6.782  -3.712  0.00  0.00    +0.146 A 
ATOM      2  C   UNL     1       7.613   6.741  -4.488  0.00  0.00    +0.101 A 
ATOM      3  C   UNL     1       6.024   6.527  -3.832  0.00  0.00    +0.047 A 
ATOM      4  C   UNL     1       7.283   6.445  -5.384  0.00  0.00    +0.018 A 
ATOM      5  C   UNL     1       5.694   6.230  -4.729  0.00  0.00    +0.004 A 
ATOM      6  C   UNL     1       6.324   6.189  -5.504  0.00  0.00    +0.001 A 
ENDROOT
BRANCH   2   8
ATOM      7  O   UNL     1       9.212   6.352  -3.950  0.00  0.00    -0.245 OA
ATOM      8  C   UNL     1       8.572   6.997  -4.368  0.00  0.00    +0.340 C 
BRANCH   8   9
ATOM      9  O   UNL     1       8.891   7.896  -4.665  0.00  0.00    -0.477 OA
ATOM     10  H   UNL     1       9.336   8.188  -4.347  0.00  0.00    +0.295 HD
ENDBRANCH   8   9
ENDBRANCH   2   8
BRANCH   1  11
ATOM     11  O   UNL     1       7.313   7.079  -2.816  0.00  0.00    -0.425 OA
BRANCH  11  13
ATOM     12  O   UNL     1       6.061   7.930  -1.975  0.00  0.00    -0.251 OA
ATOM     13  C   UNL     1       6.678   7.146  -2.047  0.00  0.00    +0.309 C 
ATOM     14  C   UNL     1       6.659   6.430  -1.349  0.00  0.00    +0.136 C 
ENDBRANCH  11  13
ENDBRANCH   1  11
TORSDOF 4
ENDMDL
MODEL 9
REMARK VINA RESULT:      -3.7      1.746      2.734
REMARK  Name = 2244
REMARK  5 active torsions:
REMARK  status: ('A' for Active; 'I' for Inactive)
REMARK    1  A    between atoms: O_1  and  C_5
REMARK    2  A    between atoms: O_1  and  C_12
REMARK    3  A    between atoms: O_2  and  C_11
REMARK    4  A    between atoms: C_6  and  C_11
REMARK    5  A    between atoms: C_12  and  C_13
REMARK                            x       y       z     vdW  Elec       q    Type
REMARK                         _______ _______ _______ _____ _____    ______ ____
ROOT
ATOM      1  C   UNL     1       9.750   4.304  -9.240  0.00  0.00    +0.146 A 
ATOM      2  C   UNL     1      10.168   4.813  -9.992  0.00  0.00    +0.101 A 
ATOM      3  C   UNL     1       8.818   4.519  -8.948  0.00  0.00    +0.047 A 
ATOM      4  C   UNL     1       9.654   5.536 -10.453  0.00  0.00    +0.018 A 
ATOM      5  C   UNL     1       8.304   5.242  -9.410  0.00  0.00    +0.004 A 
ATOM      6  C   UNL     1       8.722   5.751 -10.162  0.00  0.00    +0.001 A 
ENDROOT
BRANCH   2   8
ATOM      7  O   UNL     1      11.254   3.965 -11.041  0.00  0.00    -0.245 OA
ATOM      8  C   UNL     1      11.100   4.599 -10.283  0.00  0.00    +0.340 C 
BRANCH   8   9
ATOM      9  O   UNL     1      11.879   5.018  -9.817  0.00  0.00    -0.477 OA
ATOM     10  H   UNL     1      12.215   4.687  -9.415  0.00  0.00    +0.295 HD
ENDBRANCH   8   9
ENDBRANCH   2   8
BRANCH   1  11
ATOM     11  O   UNL     1      10.264   3.581  -8.779  0.00  0.00    -0.425 OA
BRANCH  11  13
ATOM     12  O   UNL     1       9.990   3.678  -7.071  0.00  0.00    -0.251 OA
ATOM     13  C   UNL     1       9.912   3.178  -7.934  0.00  0.00    +0.309 C 
ATOM     14  C   UNL     1       9.481   2.276  -7.952  0.00  0.00    +0.136 C 
ENDBRANCH  11  13
ENDBRANCH   1  11
TORSDOF 4
ENDMDL
