MODEL 1
REMARK VINA RESULT:      -4.5      0.000      0.000
REMARK  Name = 2244
REMARK  5 active torsions:
REMARK  status: ('A' for Active; 'I' for Inactive)
REMARK    1  A    between atoms: O_1  and  C_5
REMARK    2  A    between atoms: O_1  and  C_12
REMARK    3  A    between atoms: O_2  and  C_11
REMARK    4  A    between atoms: C_6  and  C_11
REMARK    5  A    between atoms: C_12  and  C_13
REMARK                            x       y       z     vdW  Elec       q    Type
REMARK                         _______ _______ _______ _____ _____    ______ ____
ROOT
ATOM      1  C   UNL     1       9.326   5.386  -9.935  0.00  0.00    +0.146 A 
ATOM      2  C   UNL     1       8.583   6.040 -10.074  0.00  0.00    +0.101 A 
ATOM      3  C   UNL     1       9.274   4.721  -9.190  0.00  0.00    +0.047 A 
ATOM      4  C   UNL     1       7.788   6.031  -9.468  0.00  0.00    +0.018 A 
ATOM      5  C   UNL     1       8.478   4.711  -8.584  0.00  0.00    +0.004 A 
ATOM      6  C   UNL     1       7.736   5.366  -8.723  0.00  0.00    +0.001 A 
ENDROOT
BRANCH   2   8
ATOM      7  O   UNL     1       8.282   6.471 -11.725  0.00  0.00    -0.245 OA
ATOM      8  C   UNL     1       8.636   6.705 -10.820  0.00  0.00    +0.340 C 
BRANCH   8   9
ATOM      9  O   UNL     1       9.043   7.605 -10.660  0.00  0.00    -0.477 OA
ATOM     10  H   UNL     1       9.401   7.699 -10.163  0.00  0.00    +0.295 HD
ENDBRANCH   8   9
ENDBRANCH   2   8
BRANCH   1  11
ATOM     11  O   UNL     1      10.121   5.396 -10.541  0.00  0.00    -0.425 OA
BRANCH  11  13
ATOM     12  O   UNL     1      11.624   5.049  -9.752  0.00  0.00    -0.251 OA
ATOM     13  C   UNL     1      10.888   4.776 -10.371  0.00  0.00    +0.309 C 
ATOM     14  C   UNL     1      10.917   3.883 -10.820  0.00  0.00    +0.136 C 
ENDBRANCH  11  13
ENDBRANCH   1  11
TORSDOF 4
ENDMDL
MODEL 2
REMARK VINA RESULT:      -4.2      0.912      2.757
REMARK  Name = 2244
REMARK  5 active torsions:
REMARK  status: ('A' for Active; 'I' for Inactive)
REMARK    1  A    between atoms: O_1  and  C_5
REMARK    2  A    between atoms: O_1  and  C_12
REMARK    3  A    between atoms: O_2  and  C_11
REMARK    4  A    between atoms: C_6  and  C_11
REMARK    5  A    between atoms: C_12  and  C_13
REMARK                            x       y       z     vdW  Elec       q    Type
REMARK                         _______ _______ _______ _____ _____    ______ ____
ROOT
ATOM      1  C   UNL     1       9.552   4.960  -9.740  0.00  0.00    +0.146 A 
ATOM      2  C   UNL     1      10.336   4.448  -9.388  0.00  0.00    +0.101 A 
ATOM      3  C   UNL     1       8.694   4.976  -9.226  0.00  0.00    +0.047 A 
ATOM      4  C   UNL     1      10.262   3.952  -8.523  0.00  0.00    +0.018 A 
ATOM      5  C   UNL     1       8.620   4.480  -8.360  0.00  0.00    +0.004 A 
ATOM      6  C   UNL     1       9.404   3.968  -8.009  0.00  0.00    +0.001 A 
ENDROOT
BRANCH   2   8
ATOM      7  O   UNL     1      11.341   3.737 -10.606  0.00  0.00    -0.245 OA
ATOM      8  C   UNL     1      11.193   4.432  -9.902  0.00  0.00    +0.340 C 
BRANCH   8   9
ATOM      9  O   UNL     1      11.903   5.110  -9.713  0.00  0.00    -0.477 OA
ATOM     10  H   UNL     1      12.406   4.950  -9.389  0.00  0.00    +0.295 HD
ENDBRANCH   8   9
ENDBRANCH   2   8
BRANCH   1  11
ATOM     11  O   UNL     1       9.625   5.455 -10.605  0.00  0.00    -0.425 OA
BRANCH  11  13
ATOM     12  O   UNL     1       9.133   7.112 -10.493  0.00  0.00    -0.251 OA
ATOM     13  C   UNL     1       8.973   6.182 -10.822  0.00  0.00    +0.309 C 
ATOM     14  C   UNL     1       8.161   5.977 -11.368  0.00  0.00    +0.136 C 
ENDBRANCH  11  13
ENDBRANCH   1  11
TORSDOF 4
ENDMDL
MODEL 3
REMARK VINA RESULT:      -4.0      1.428      2.769
REMARK  Name = 2244
REMARK  5 active torsions:
REMARK  status: ('A' for Active; 'I' for Inactive)
REMARK    1  A    between atoms: O_1  and  C_5
REMARK    2  A    between atoms: O_1  and  C_12
REMARK    3  A    between atoms: O_2  and  C_11
REMARK    4  A    between atoms: C_6  and  C_11
REMARK    5  A    between atoms: C_12  and  C_13
REMARK                            x       y       z     vdW  Elec       q    Type
REMARK                         _______ _______ _______ _____ _____    ______ ____
ROOT
ATOM      1  C   UNL     1       8.369   5.722  -9.493  0.00  0.00    +0.146 A 
ATOM      2  C   UNL     1       8.903   5.976 -10.299  0.00  0.00    +0.101 A 
ATOM      3  C   UNL     1       8.639   4.932  -8.943  0.00  0.00    +0.047 A 
ATOM      4  C   UNL     1       9.707   5.440 -10.556  0.00  0.00    +0.018 A 
ATOM      5  C   UNL     1       9.443   4.395  -9.199  0.00  0.00    +0.004 A 
ATOM      6  C   UNL     1       9.977   4.649 -10.006  0.00  0.00    +0.001 A 
ENDROOT
BRANCH   2   8
ATOM      7  O   UNL     1       7.966   6.658 -11.587  0.00  0.00    -0.245 OA
ATOM      8  C   UNL     1       8.632   6.766 -10.849  0.00  0.00    +0.340 C 
BRANCH   8   9
ATOM      9  O   UNL     1       9.028   7.665 -10.661  0.00  0.00    -0.477 OA
ATOM     10  H   UNL     1       8.828   7.997 -10.177  0.00  0.00    +0.295 HD
ENDBRANCH   8   9
ENDBRANCH   2   8
BRANCH   1  11
ATOM     11  O   UNL     1       7.565   6.258  -9.236  0.00  0.00    -0.425 OA
BRANCH  11  13
ATOM     12  O   UNL     1       7.417   6.382  -7.514  0.00  0.00    -0.251 OA
ATOM     13  C   UNL     1       7.072   6.048  -8.392  0.00  0.00    +0.309 C 
ATOM     14  C   UNL     1       6.234   5.502  -8.425  0.00  0.00    +0.136 C 
ENDBRANCH  11  13
ENDBRANCH   1  11
TORSDOF 4
ENDMDL
MODEL 4
REMARK VINA RESULT:      -3.9      3.629      4.688
REMARK  Name = 2244
REMARK  5 active torsions:
REMARK  status: ('A' for Active; 'I' for Inactive)
REMARK    1  A    between atoms: O_1  and  C_5
REMARK    2  A    between atoms: O_1  and  C_12
REMARK    3  A    between atoms: O_2  and  C_11
REMARK    4  A    between atoms: C_6  and  C_11
REMARK    5  A    between atoms: C_12  and  C_13
REMARK                            x       y       z     vdW  Elec       q    Type
REMARK                         _______ _______ _______ _____ _____    ______ ____
ROOT
ATOM      1  C   UNL     1       6.752   6.399  -6.943  0.00  0.00    +0.146 A 
ATOM      2  C   UNL     1       6.683   6.710  -5.995  0.00  0.00    +0.101 A 
ATOM      3  C   UNL     1       5.984   6.532  -7.569  0.00  0.00    +0.047 A 
ATOM      4  C   UNL     1       5.847   7.155  -5.674  0.00  0.00    +0.018 A 
ATOM      5  C   UNL     1       5.148   6.977  -7.248  0.00  0.00    +0.004 A 
ATOM      6  C   UNL     1       5.079   7.288  -6.300  0.00  0.00    +0.001 A 
ENDROOT
BRANCH   2   8
ATOM      7  O   UNL     1       7.532   5.726  -4.850  0.00  0.00    -0.245 OA
ATOM      8  C   UNL     1       7.451   6.577  -5.368  0.00  0.00    +0.340 C 
BRANCH   8   9
ATOM      9  O   UNL     1       8.139   7.295  -5.260  0.00  0.00    -0.477 OA
ATOM     10  H   UNL     1       8.545   7.407  -5.715  0.00  0.00    +0.295 HD
ENDBRANCH   8   9
ENDBRANCH   2   8
BRANCH   1  11
ATOM     11  O   UNL     1       7.588   5.955  -7.264  0.00  0.00    -0.425 OA
BRANCH  11  13
ATOM     12  O   UNL     1       7.861   6.215  -8.955  0.00  0.00    -0.251 OA
ATOM     13  C   UNL     1       7.639   5.600  -8.198  0.00  0.00    +0.309 C 
ATOM     14  C   UNL     1       7.468   4.631  -8.374  0.00  0.00    +0.136 C 
ENDBRANCH  11  13
ENDBRANCH   1  11
TORSDOF 4
ENDMDL
MODEL 5
REMARK VINA RESULT:      -3.9      1.590      2.398
REMARK  Name = 2244
REMARK  5 active torsions:
REMARK  status: ('A' for Active; 'I' for Inactive)
REMARK    1  A    between atoms: O_1  and  C_5
REMARK    2  A    between atoms: O_1  and  C_12
REMARK    3  A    between atoms: O_2  and  C_11
REMARK    4  A    between atoms: C_6  and  C_11
REMARK    5  A    between atoms: C_12  and  C_13
REMARK                            x       y       z     vdW  Elec       q    Type
REMARK                         _______ _______ _______ _____ _____    ______ ____
ROOT
ATOM      1  C   UNL     1       9.382   4.904  -9.393  0.00  0.00    +0.146 A 
ATOM      2  C   UNL     1       8.626   4.910  -8.738  0.00  0.00    +0.101 A 
ATOM      3  C   UNL     1       9.332   5.463 -10.220  0.00  0.00    +0.047 A 
ATOM      4  C   UNL     1       7.820   5.476  -8.912  0.00  0.00    +0.018 A 
ATOM      5  C   UNL     1       8.526   6.028 -10.394  0.00  0.00    +0.004 A 
ATOM      6  C   UNL     1       7.770   6.035  -9.739  0.00  0.00    +0.001 A 
ENDROOT
BRANCH   2   8
ATOM      7  O   UNL     1       8.357   3.404  -7.928  0.00  0.00    -0.245 OA
ATOM      8  C   UNL     1       8.676   4.351  -7.911  0.00  0.00    +0.340 C 
BRANCH   8   9
ATOM      9  O   UNL     1       9.045   4.739  -7.067  0.00  0.00    -0.477 OA
ATOM     10  H   UNL     1       8.701   5.128  -6.728  0.00  0.00    +0.295 HD
ENDBRANCH   8   9
ENDBRANCH   2   8
BRANCH   1  11
ATOM     11  O   UNL     1      10.188   4.338  -9.220  0.00  0.00    -0.425 OA
BRANCH  11  13
ATOM     12  O   UNL     1      11.636   5.093  -9.795  0.00  0.00    -0.251 OA
ATOM     13  C   UNL     1      10.960   4.359  -9.855  0.00  0.00    +0.309 C 
ATOM     14  C   UNL     1      11.056   3.647 -10.550  0.00  0.00    +0.136 C 
ENDBRANCH  11  13
ENDBRANCH   1  11
TORSDOF 4
ENDMDL
MODEL 6
REMARK VINA RESULT:      -3.8      4.298      5.341
REMARK  Name = 2244
REMARK  5 active torsions:
REMARK  status: ('A' for Active; 'I' for Inactive)
REMARK    1  A    between atoms: O_1  and  C_5
REMARK    2  A    between atoms: O_1  and  C_12
REMARK    3  A    between atoms: O_2  and  C_11
REMARK    4  A    between atoms: C_6  and  C_11
REMARK    5  A    between atoms: C_12  and  C_13
REMARK                            x       y       z     vdW  Elec       q    Type
REMARK                         _______ _______ _______ _____ _____    ______ ____
ROOT
ATOM      1  C   UNL     1       7.088   5.709  -5.572  0.00  0.00    +0.146 A 
ATOM      2  C   UNL     1       7.202   6.322  -4.791  0.00  0.00    +0.101 A 
ATOM      3  C   UNL     1       6.187   5.327  -5.781  0.00  0.00    +0.047 A 
ATOM      4  C   UNL     1       6.416   6.554  -4.218  0.00  0.00    +0.018 A 
ATOM      5  C   UNL     1       5.401   5.559  -5.209  0.00  0.00    +0.004 A 
ATOM      6  C   UNL     1       5.515   6.173  -4.427  0.00  0.00    +0.001 A 
ENDROOT
BRANCH   2   8
ATOM      7  O   UNL     1       8.717   6.220  -3.958  0.00  0.00    -0.245 OA
ATOM      8  C   UNL     1       8.102   6.703  -4.582  0.00  0.00    +0.340 C 
BRANCH   8   9
ATOM      9  O   UNL     1       8.388   7.567  -4.997  0.00  0.00    -0.477 OA
ATOM     10  H   UNL     1       8.029   7.840  -5.422  0.00  0.00    +0.295 HD
ENDBRANCH   8   9
ENDBRANCH   2   8
BRANCH   1  11
ATOM     11  O   UNL     1       7.874   5.476  -6.145  0.00  0.00    -0.425 OA
BRANCH  11  13
ATOM     12  O   UNL     1       7.551   6.115  -7.722  0.00  0.00    -0.251 OA
ATOM     13  C   UNL     1       7.753   5.337  -7.128  0.00  0.00    +0.309 C 
ATOM     14  C   UNL     1       7.834   4.418  -7.516  0.00  0.00    +0.136 C 
ENDBRANCH  11  13
ENDBRANCH   1  11
TORSDOF 4
ENDMDL
MODEL 7
REMARK VINA RESULT:      -3.8      1.213      3.297
REMARK  Name = 2244
REMARK  5 active torsions:
REMARK  status: ('A' for Active; 'I' for Inactive)
REMARK    1  A    between atoms: O_1  and  C_5
REMARK    2  A    between atoms: O_1  and  C_12
REMARK    3  A    between atoms: O_2  and  C_11
REMARK    4  A    between atoms: C_6  and  C_11
REMARK    5  A    between atoms: C_12  and  C_13
REMARK                            x       y       z     vdW  Elec       q    Type
REMARK                         _______ _______ _______ _____ _____    ______ ____
ROOT
ATOM      1  C   UNL     1       9.652   4.704 -10.603  0.00  0.00    +0.146 A 
ATOM      2  C   UNL     1      10.495   4.227 -10.355  0.00  0.00    +0.101 A 
ATOM      3  C   UNL     1       9.038   4.311 -11.288  0.00  0.00    +0.047 A 
ATOM      4  C   UNL     1      10.724   3.358 -10.791  0.00  0.00    +0.018 A 
ATOM      5  C   UNL     1       9.268   3.442 -11.725  0.00  0.00    +0.004 A 
ATOM      6  C   UNL     1      10.111   2.965 -11.477  0.00  0.00    +0.001 A 
ENDROOT
BRANCH   2   8
ATOM      7  O   UNL     1      11.909   5.146  -9.958  0.00  0.00    -0.245 OA
ATOM      8  C   UNL     1      11.108   4.620  -9.670  0.00  0.00    +0.340 C 
BRANCH   8   9
ATOM      9  O   UNL     1      10.921   4.488  -8.696  0.00  0.00    -0.477 OA
ATOM     10  H   UNL     1      11.292   4.745  -8.271  0.00  0.00    +0.295 HD
ENDBRANCH   8   9
ENDBRANCH   2   8
BRANCH   1  11
ATOM     11  O   UNL     1       9.422   5.574 -10.166  0.00  0.00    -0.425 OA
BRANCH  11  13
ATOM     12  O   UNL     1       9.375   6.810 -11.379  0.00  0.00    -0.251 OA
ATOM     13  C   UNL     1       8.914   6.270 -10.674  0.00  0.00    +0.309 C 
ATOM     14  C   UNL     1       7.946   6.426 -10.478  0.00  0.00    +0.136 C 
ENDBRANCH  11  13
ENDBRANCH   1  11
TORSDOF 4
ENDMDL
MODEL 8
REMARK VINA RESULT:      -3.7      6.133      7.381
REMARK  Name = 2244
REMARK  5 active torsions:
REMARK  status: ('A' for Active; 'I' for Inactive)
REMARK    1  A    between atoms: O_1  and  C_5
REMARK    2  A    between atoms: O_1  and  C_12
REMARK    3  A    between atoms: O_2  and  C_11
REMARK    4  A    between atoms: C_6  and  C_11
REMARK    5  A    between atoms: C_12  and  C_13
REMARK                            x       y       z     vdW  Elec       q    Type
REMARK                         _______ _______ _______ _____ _____    ______ ____
ROOT
ATOM      1  C   UNL     1       6.894   6.489  -3.540  0.00  0.00    +0.146 A 
ATOM      2  C   UNL     1       7.438   6.408  -4.375  0.00  0.00    +0.101 A 
ATOM      3  C   UNL     1       5.992   6.060  -3.487  0.00  0.00    +0.047 A 
ATOM      4  C   UNL     1       7.080   5.899  -5.158  0.00  0.00    +0.018 A 
ATOM      5  C   UNL     1       5.634   5.551  -4.270  0.00  0.00    +0.004 A 
ATOM      6  C   UNL     1       6.178   5.470  -5.105  0.00  0.00    +0.001 A 
ENDROOT
BRANCH   2   8
ATOM      7  O   UNL     1       9.111   6.441  -3.930  0.00  0.00    -0.245 OA
ATOM      8  C   UNL     1       8.340   6.837  -4.428  0.00  0.00    +0.340 C 
BRANCH   8   9
ATOM      9  O   UNL     1       8.470   7.661  -4.979  0.00  0.00    -0.477 OA
ATOM     10  H   UNL     1       8.091   7.779  -5.454  0.00  0.00    +0.295 HD
ENDBRANCH   8   9
ENDBRANCH   2   8
BRANCH   1  11
ATOM     11  O   UNL     1       7.252   6.998  -2.757  0.00  0.00    -0.425 OA
BRANCH  11  13
ATOM     12  O   UNL     1       5.984   7.927  -2.031  0.00  0.00    -0.251 OA
ATOM     13  C   UNL     1       6.661   7.193  -1.975  0.00  0.00    +0.309 C 
ATOM     14  C   UNL     1       6.746   6.654  -1.137  0.00  0.00    +0.136 C 
ENDBRANCH  11  13
ENDBRANCH   1  11
TORSDOF 4
ENDMDL
MODEL 9
REMARK VINA RESULT:      -3.5      1.762      2.856
REMARK  Name = 2244
REMARK  5 active torsions:
REMARK  status: ('A' for Active; 'I' for Inactive)
REMARK    1  A    between atoms: O_1  and  C_5
REMARK    2  A    between atoms: O_1  and  C_12
REMARK    3  A    between atoms: O_2  and  C_11
REMARK    4  A    between atoms: C_6  and  C_11
REMARK    5  A    between atoms: C_12  and  C_13
REMARK                            x       y       z     vdW  Elec       q    Type
REMARK                         _______ _______ _______ _____ _____    ______ ____
ROOT
ATOM      1  C   UNL     1       9.028   5.197  -9.469  0.00  0.00    +0.146 A 
ATOM      2  C   UNL     1       8.846   4.766  -8.586  0.00  0.00    +0.101 A 
ATOM      3  C   UNL     1       9.853   4.959  -9.982  0.00  0.00    +0.047 A 
ATOM      4  C   UNL     1       9.490   4.096  -8.215  0.00  0.00    +0.018 A 
ATOM      5  C   UNL     1      10.496   4.289  -9.611  0.00  0.00    +0.004 A 
ATOM      6  C   UNL     1      10.314   3.858  -8.727  0.00  0.00    +0.001 A 
ENDROOT
BRANCH   2   8
ATOM      7  O   UNL     1       7.168   4.511  -8.242  0.00  0.00    -0.245 OA
ATOM      8  C   UNL     1       8.021   5.004  -8.073  0.00  0.00    +0.340 C 
BRANCH   8   9
ATOM      9  O   UNL     1       8.050   5.735  -7.391  0.00  0.00    -0.477 OA
ATOM     10  H   UNL     1       7.987   5.600  -6.789  0.00  0.00    +0.295 HD
ENDBRANCH   8   9
ENDBRANCH   2   8
BRANCH   1  11
ATOM     11  O   UNL     1       8.384   5.867  -9.840  0.00  0.00    -0.425 OA
BRANCH  11  13
ATOM     12  O   UNL     1       9.134   7.172 -10.698  0.00  0.00    -0.251 OA
ATOM     13  C   UNL     1       8.589   6.333 -10.701  0.00  0.00    +0.309 C 
ATOM     14  C   UNL     1       8.248   5.961 -11.564  0.00  0.00    +0.136 C 
ENDBRANCH  11  13
ENDBRANCH   1  11
TORSDOF 4
ENDMDL
